# vtk DataFile Version 5.1
vtk output
ASCII
DATASET POLYDATA
POINTS 356 float
0.463737 0.559711 0.180179 0.56765 0.534533 8.66276 0.670107 8.28481 0.267932 
0.746721 8.20167 8.59395 8.55774 0.702209 0.159913 8.46276 0.924903 8.6325 
8.56472 8.17644 0.303319 8.45698 8.09309 8.54948 -0.0484471 0.199092 1.26229 
-0.568401 -0.261734 2.56087 -0.741615 -0.285514 4.07128 -0.830093 -0.325081 5.48907 
-0.603586 -0.12442 6.813 0.0158218 0.250978 7.69873 -0.0912292 1.2745 0.0915556 
-0.230598 2.42668 -0.599517 -0.284906 4.03225 -0.51897 -0.367744 5.61558 -0.556085 
-0.270988 6.82789 -0.225592 0.515225 7.63377 -0.0987758 0.347344 8.42908 1.27795 
0.0182605 8.56518 2.5853 -0.274692 8.76864 4.1064 -0.212946 8.79727 5.46591 
0.145061 8.49155 6.71939 0.489298 8.56809 7.8704 0.156598 1.29558 8.61432 
0.0936507 2.43894 9.17198 -0.178264 3.99318 9.0956 -0.211188 5.59536 9.01265 
-0.112087 6.83142 8.75342 0.532022 7.6614 8.98887 8.94304 0.214967 0.953525 
9.12107 -0.154952 2.38367 9.26433 -0.380892 3.99012 9.17248 -0.25341 5.54449 
9.04579 0.0341098 6.97248 8.82324 0.347249 8.04863 8.81869 1.36768 0.14553 
8.84788 2.41965 -0.47869 9.08154 4.00455 -0.323952 9.07808 5.61627 -0.289343 
9.14337 6.90406 -0.0361218 8.62375 7.67653 0.0383181 8.65947 8.45664 1.18632 
8.68171 8.63403 2.5683 8.97952 8.8884 4.07522 8.9127 8.90804 5.52521 
8.80402 8.67058 6.95759 8.45749 8.32042 7.88981 8.77194 1.41076 8.58397 
8.73996 2.43725 9.09881 8.96972 3.99324 9.00993 8.96152 5.57138 9.00276 
8.92953 6.81055 8.81015 8.52731 7.57061 8.77724 1.50428 0.492749 -0.219446 
2.73028 -0.284547 -0.461128 4.22063 -0.101158 -0.581885 5.59249 -0.116425 -0.67763 
6.81501 0.0454333 -0.519364 7.85602 0.338536 -0.234475 1.48107 0.589084 8.8268 
2.56854 -0.0384241 9.05531 4.27049 -0.0634051 9.1028 5.75142 0.104534 8.99386 
6.91731 0.261789 9.15179 7.82745 0.675209 8.68118 1.43473 8.28637 -0.20894 
2.54663 9.01543 -0.42189 4.30868 9.1065 -0.733545 5.74385 8.92438 -0.705687 
6.98938 8.72406 -0.555339 7.94937 8.55839 -0.130046 1.45205 8.21334 8.99142 
2.58835 8.75698 9.08041 4.2953 8.86138 9.33035 5.78535 8.70424 9.38692 
6.97515 8.54141 9.30285 7.83405 8.20042 8.8718 -1.4101 0.104678 4.77069 
-1.5731 5.91957 1.702 -1.40158 5.94269 7.44686 -0.929695 0.493512 7.53096 
-1.04538 0.384134 1.71953 -0.707659 3.2422 8.30011 0.10595 7.64127 8.1497 
-0.910761 7.99407 6.18663 -0.955905 3.20321 0.508795 -0.98097 7.98406 3.31266 
-0.236364 7.742 0.513829 -2.00588 5.82909 4.86391 -2.02836 3.01196 3.2174 
-1.90573 3.03743 6.28073 -0.109783 0.642952 8.49476 -1.13823 0.270044 6.14793 
-1.47406 0.106669 3.27571 -0.281582 0.717318 0.579709 -1.19621 4.78618 8.24489 
-0.688049 6.00345 8.21178 -0.847433 6.98837 7.89962 -1.20755 6.96952 6.76738 
-0.524773 7.84642 7.35685 -1.26291 4.70003 0.716599 -1.03553 5.95644 0.488414 
-1.44922 6.95747 2.56182 -0.924462 6.88254 1.24159 -0.635486 7.72115 1.90822 
-0.930335 7.81695 4.84197 -1.68651 7.00457 4.07008 -1.93294 5.83741 3.22633 
-1.61861 6.95986 5.51833 -1.84575 5.876 6.3049 -1.92091 4.51743 2.50759 
-1.6021 3.13959 1.66305 -0.874979 1.40223 0.933276 -1.37549 1.05261 2.54941 
-1.68384 0.831473 4.0686 -1.677 4.54849 6.76594 -1.58697 3.12261 7.4731 
-1.64388 0.825901 5.50521 -1.2913 1.04195 6.72751 -0.759218 1.34332 8.18334 
-2.05856 2.88833 4.79571 -2.14386 4.49184 5.52774 -2.19657 4.46435 4.08913 
9.84686 0.350105 4.75935 9.96045 5.84287 1.79441 9.8566 5.75526 7.40672 
9.49166 0.76553 7.62168 9.20438 0.741749 1.68901 9.10994 3.0976 8.26123 
8.84744 7.40735 8.19902 9.3107 7.86684 6.19791 9.32235 3.11622 0.569538 
9.52017 7.91606 3.33258 8.83825 7.59218 0.796935 9.96537 5.67198 4.82368 
10.1285 3.0112 3.11921 10.138 2.96731 6.28459 8.90729 1.06234 8.3611 
9.56827 0.484207 6.2185 9.53408 0.445554 3.22234 9.01169 0.925402 0.528098 
9.58257 4.66915 8.2338 9.19821 5.95359 8.21108 9.44162 6.76282 7.85563 
9.52 6.88246 6.81746 9.32269 7.78832 7.38529 9.79901 4.63638 0.770453 
9.41763 5.94229 0.688812 9.6608 6.89633 2.64021 9.61158 6.87997 1.24263 
9.36912 7.82336 1.82281 9.37146 7.89691 4.85109 9.98796 6.89273 4.07726 
10.2323 5.74007 3.26482 9.90721 6.90181 5.55837 10.1054 5.78569 6.24906 
9.92575 4.41461 2.49434 9.86186 2.98295 1.79336 9.49113 1.47697 0.945211 
9.60943 1.19565 2.50069 9.73249 1.15693 3.95796 9.83745 4.41745 6.83023 
9.73739 2.98346 7.4623 9.75442 1.11908 5.54326 9.53854 1.22213 6.78242 
9.2258 1.52054 8.02412 10.0233 2.72477 4.76781 10.2193 4.37223 5.48377 
10.2786 4.37875 4.04845 3.83532 -1.52114 1.51942 3.92034 -1.53568 7.4356 
8.82055 -1.20704 4.82631 8.50913 -0.381275 7.68629 8.39296 -0.400886 1.45278 
6.56765 -0.534525 8.4555 1.3736 -0.224996 8.31267 1.2384 -1.14787 6.12105 
6.38647 -0.648872 0.371653 1.18726 -1.20751 3.30232 1.31109 -0.435544 0.409818 
3.91039 -2.06762 4.83595 6.47162 -1.78728 3.08675 6.60915 -1.68502 6.37413 
8.23766 0.436677 8.41584 8.69525 -0.836701 6.36071 8.63518 -0.903592 3.13624 
8.2506 0.110157 0.376015 5.22622 -1.01399 8.21953 3.76555 -0.707923 8.25865 
2.6096 -1.00247 7.79369 2.54694 -1.47071 6.70283 1.27078 -0.868563 7.30518 
5.20838 -1.15008 0.547064 3.84741 -0.989612 0.451169 2.51331 -1.64667 2.43706 
2.6996 -0.897509 1.18826 1.22659 -0.898517 1.71925 1.18009 -1.34202 4.7586 
2.5596 -1.7457 4.0642 3.87768 -1.89227 3.19049 2.52494 -1.79907 5.56703 
3.91953 -1.82815 6.28279 5.16396 -1.71969 2.39961 6.47974 -1.41569 1.51302 
7.768 -0.657987 0.723135 7.88089 -1.08019 2.34754 7.94935 -1.31505 3.98473 
5.25576 -1.6289 6.81539 6.52506 -1.21925 7.52105 8.0093 -1.17824 5.63667 
8.00242 -0.939852 7.05668 7.89722 -0.267172 8.34525 6.53375 -1.83601 4.83373 
5.26915 -2.04715 5.60397 5.20875 -1.99165 4.01023 3.72203 10.034 1.83032 
3.73391 9.80868 7.38814 8.34539 9.17872 4.75362 8.27547 8.9334 7.50141 
8.37907 9.1064 1.66711 6.54937 9.10782 8.48941 1.492 8.7572 8.28998 
1.04655 9.40323 6.25595 6.39918 9.24373 0.512661 0.934984 9.41103 3.27663 
1.29828 8.89009 0.623961 3.75286 9.97463 4.78612 6.64861 10.0217 3.30621 
6.65119 9.86744 6.28266 8.2018 8.53967 8.54925 8.2578 9.01205 6.3461 
8.41989 9.2659 3.40824 8.1912 8.54633 0.625321 5.12978 9.59474 8.28758 
3.71453 9.28779 8.39731 2.52288 9.39368 7.99404 2.44954 9.48962 6.70345 
1.27523 9.18887 7.31354 5.08617 9.7472 0.79164 3.59096 9.42003 0.562607 
2.31862 9.67452 2.58319 2.39738 9.39001 1.12317 1.15813 9.19774 1.95475 
0.961241 9.20762 4.78814 2.23325 9.89105 4.15968 3.72939 10.2439 3.24936 
2.29197 9.89558 5.43631 3.75768 10.0838 6.26457 5.25239 9.86603 2.55662 
6.57291 9.77783 1.72739 7.66653 9.14479 0.929413 7.71044 9.23889 2.57023 
7.80701 9.66683 4.07468 5.23061 9.75701 6.86927 6.55754 9.69541 7.45776 
7.92044 9.6644 5.49377 7.82983 9.27641 6.86994 7.70469 8.97774 8.14178 
6.59765 9.74578 4.85607 5.24119 10.2903 5.47765 5.23214 10.2386 4.12951 
1.76725 3.79611 -1.81268 7.474 3.69573 -1.79598 5.00192 8.47796 -1.1374 
7.59003 8.24624 -0.748198 1.93777 8.28489 -0.958756 8.17933 6.28257 -0.821715 
8.17216 1.49271 -0.474232 6.21017 1.11868 -1.26537 0.67695 6.24984 -0.949596 
3.48126 1.19873 -1.44326 0.736557 1.35005 -0.678079 4.87231 3.85721 -2.21397 
3.17634 6.45209 -1.97432 6.37532 6.42914 -1.77927 8.10606 7.9487 -0.0870712 
6.38531 8.42046 -1.14362 3.30237 8.32079 -1.09836 0.856144 8.02123 -0.277869 
8.32108 5.01657 -1.3363 8.20884 3.64052 -1.05114 7.87504 2.38324 -1.27232 
6.67325 2.40632 -1.69984 7.31794 1.2052 -1.09797 0.78081 5.01159 -1.44802 
0.58956 3.59656 -1.28471 2.64495 2.39989 -1.80527 1.35672 2.56468 -1.25314 
1.88304 1.21355 -1.26712 4.96049 0.994254 -1.43159 4.17887 2.42969 -2.03284 
3.29557 3.78521 -2.15861 5.49575 2.42203 -1.98384 6.32907 3.81094 -1.99703 
2.53067 5.11334 -1.92898 1.65966 6.34994 -1.68053 0.989686 7.58043 -0.920477 
2.66186 7.64359 -1.40927 4.29952 7.99364 -1.73811 6.89543 5.19863 -1.89349 
7.43777 6.53029 -1.44928 5.72402 7.95944 -1.56176 7.01823 7.81209 -1.3098 
8.23423 7.67918 -0.737141 4.92233 6.50182 -1.93377 5.6188 5.18335 -2.11966 
4.02176 5.20045 -2.1793 1.78997 3.79671 10.082 7.39416 3.80394 9.8301 
4.99708 8.27829 9.63928 7.32547 7.85033 9.15079 2.10649 7.92703 9.16041 
8.22949 6.28758 9.23272 8.22007 1.62719 9.14395 6.28337 1.17397 9.65287 
0.733236 6.30795 9.36352 3.47749 1.23092 9.4881 0.927825 1.4041 9.25183 
4.79851 3.73038 10.2608 3.42663 6.40236 10.0356 6.35361 6.55911 10.1161 
8.30778 7.8835 8.88676 6.35487 8.03324 9.54027 3.46775 8.15141 9.35252 
1.12336 7.83621 8.76873 8.25779 5.05801 9.6366 8.12481 3.63033 9.32887 
7.72756 2.49687 9.56985 6.741 2.55972 9.71993 7.32014 1.32175 9.25588 
0.93881 4.97094 9.64805 0.715922 3.49288 9.48817 2.64911 2.34222 9.91472 
1.47409 2.58727 9.54467 1.94782 1.25706 9.54969 4.92198 1.08318 9.70702 
4.10927 2.35104 10.0815 3.33984 3.81824 10.1003 5.51829 2.48122 9.90391 
6.28416 3.73363 10.2404 2.58012 5.17996 10.076 1.82567 6.39896 9.78751 
1.32223 7.46766 9.28782 2.68749 7.62842 9.80536 4.21141 7.83442 9.99983 
6.80361 5.14803 9.83863 7.45833 6.37097 9.84581 5.60221 7.72805 9.90954 
6.88545 7.55953 9.67655 8.04271 7.47665 9.33726 4.8993 6.50665 10.2412 
5.59528 5.20713 10.1748 4.11326 5.19312 10.4337 
POLYGONS 709 2124
OFFSETS vtktypeint64
0 3 6 9 12 15 18 21 24 
27 30 33 36 39 42 45 48 51 
54 57 60 63 66 69 72 75 78 
81 84 87 90 93 96 99 102 105 
108 111 114 117 120 123 126 129 132 
135 138 141 144 147 150 153 156 159 
162 165 168 171 174 177 180 183 186 
189 192 195 198 201 204 207 210 213 
216 219 222 225 228 231 234 237 240 
243 246 249 252 255 258 261 264 267 
270 273 276 279 282 285 288 291 294 
297 300 303 306 309 312 315 318 321 
324 327 330 333 336 339 342 345 348 
351 354 357 360 363 366 369 372 375 
378 381 384 387 390 393 396 399 402 
405 408 411 414 417 420 423 426 429 
432 435 438 441 444 447 450 453 456 
459 462 465 468 471 474 477 480 483 
486 489 492 495 498 501 504 507 510 
513 516 519 522 525 528 531 534 537 
540 543 546 549 552 555 558 561 564 
567 570 573 576 579 582 585 588 591 
594 597 600 603 606 609 612 615 618 
621 624 627 630 633 636 639 642 645 
648 651 654 657 660 663 666 669 672 
675 678 681 684 687 690 693 696 699 
[...]
CELL_DATA 708
SCALARS scalars double
LOOKUP_TABLE default
-5.4846211911 -8.853219893 -4.4805980015 -6.3127518331 -5.5411573822 -8.3487404542 -7.862384324 -6.0090426408 -9.0641193841 
-5.2101326845 -8.2803114116 -5.8987077957 -7.8800505746 -4.1881170159 3.1236337563 3.2200637652 -1.0586984729 -2.0269943512 
1.8379811261 0.27333514859 3.5292373035 5.8362580639 4.3091493434 4.7910282132 5.6137187964 8.095587745 7.7425405037 
4.5525690197 4.5176166928 4.9578144248 0.95509983217 5.8766490295 0.88127117458 -0.0086212321216 -1.4906999733 0.92134194073 
-0.82626630374 -0.5580289239 0.51053439894 3.9765223389 5.6679662129 4.7839284512 5.3542062301 7.6579023078 7.4275308003 
7.8537701696 7.0768005185 7.2047954219 3.4936536023 3.9556835327 4.1116634712 2.1973460506 5.1261756535 5.656355917 
6.1772702738 7.7206950734 4.9894981153 6.1257941745 5.8006166301 2.8243966905 2.3541036984 3.1148625131 4.11023129 
2.7146280156 3.7445025311 3.9034692625 2.9550802965 5.9240491632 6.2883544729 6.5146970565 0.3688565439 -1.0932069655 
-0.5794489351 -0.054713751001 -4.3100674055 -4.7258013512 -5.0335761506 -2.3759986933 -3.0140388956 -4.1190459152 -6.0516962238 
-0.56792881096 -0.81626045128 -2.1835491809 -1.5386100622 -2.4091501613 0.40064904668 0.64729893052 -1.8286424204 0.86433120306 
-2.1698802766 -5.7294536416 -5.0508039102 -4.0899687386 -0.20722520977 -6.2218312199 -0.88373339766 -0.74265971016 0.078684676509 
-0.26348022791 -2.2859688571 -2.6183768183 -3.3115909062 -1.5703639283 -1.6817001894 -1.8825569288 0.28771742702 0.072758898555 
1.5312922869 0.035249834394 -0.1081833481 1.622058369 1.1235699927 0.82757958936 1.1930057041 -0.99120265941 -1.0375783213 
-0.70310434249 -1.9372692537 -3.8529321246 -2.8860807989 -5.9266982718 -3.5004635613 -6.8165180529 -6.8856724269 -2.9071465583 
-4.2177545328 -3.0424413386 -2.2675036527 -3.5566397161 -4.2095766774 -2.645302991 2.4335953398 2.6997195409 -1.2047182661 
-2.4876288532 0.73863153202 0.068972578882 3.3649165996 3.5463421239 2.1040836386 1.5636059439 2.9104565497 5.157729884 
6.0533042375 4.3063872639 4.7740475 4.5257050805 0.41249815762 5.0402626936 -0.56001180468 -1.026801344 -0.0061089461534 
2.316283176 -2.1346931696 0.13680978791 2.3594779546 3.0083610723 2.0873063731 4.8548556447 2.700616661 6.0992219024 
3.8304241891 2.8014370547 6.957253959 7.0120518805 6.3328138986 0.7088276044 0.087419873154 0.17712956571 2.3817673113 
5.6134456998 3.8471716536 4.306952488 2.7386427492 4.2838222888 3.9230314265 3.7536842198 0.86925118516 3.4090008705 
3.6442392606 1.0999432335 3.7655078174 3.3409372116 0.14756365865 5.0086659896 4.6855836077 4.9774684535 -0.64043049119 
-2.2222248298 0.53238276893 -0.080943681668 -3.5947408342 -2.8283980251 -3.9825301858 -2.4595254505 -1.98632723 -3.1332553398 
-2.7445377417 -1.8259869842 -4.9029014826 -2.1006527122 0.018144117867 -1.8043586408 -0.97911630354 0.75235620323 -2.1553323971 
0.093633355719 -2.7097523284 -3.8796482035 -4.0045530538 -0.9706792046 0.057600821644 -2.8607455449 2.3834069883 -2.797449011 
-0.90420155737 -0.35716825152 -2.2615885054 -2.1613694178 1.3000859237 -1.8586724558 -1.9646298042 -1.7348888438 0.97582272398 
-1.028940562 1.3762942066 -0.71301682685 0.42674304083 1.3272281212 -1.1604253582 -0.95100815669 2.1173793688 -1.3558843682 
-0.91956910649 -1.35265818 -5.4969254849 -5.1877785609 -6.0574910856 -4.6910779368 -6.2417022984 -4.0179873544 -5.0300714525 
-8.1323427732 -6.4404963248 -7.7204833579 -7.5380072569 -6.0690216389 -5.3081203993 -5.2870929625 -2.4916880698 -7.1122399763 
-7.453635229 -6.5467133241 -5.8958393899 -7.8611373982 -6.0406352358 -8.8394167802 -7.9704485257 -9.1785666201 -8.8871690594 
-8.8545867215 -6.8583546797 -7.310147147 -7.1621488964 -4.4359072933 -7.1087214105 -7.7473237688 -7.9454978037 -5.1857934274 
-8.159597631 -8.1241523485 -8.9251594856 -7.7744214669 -7.5465771777 -7.4997243079 -8.0179628325 -8.9087169486 -9.3337849375 
-8.2939209586 -8.8981219298 -7.7272382494 -4.7760517947 -6.2689360336 -7.4829157221 -8.956867341 -9.3049872149 -8.4087425655 
-8.9558376954 -7.6496521798 -4.4158385735 -9.0311213822 -8.8622035223 -9.3858826415 -8.8558467856 -8.8302379013 -9.7494566408 
-9.7925419987 -9.8757086735 -9.0124937547 -9.8110759737 -9.5440823032 -9.4714577086 -9.7685572843 -9.065702457 -9.4305336453 
-9.532365863 -9.5493766511 -7.9287087788 -9.7092503488 -9.5573780012 -6.6153797119 -7.5116181341 -9.1284693953 -6.0497474456 
-7.3874851126 -7.2934524766 -9.1784528273 -7.6610675271 -9.1347728086 -8.1700090089 -8.9357927053 -9.081650565 -9.2088790886 
-7.9688710237 -9.1311332281 -9.0064760324 -7.7424608836 -7.2414346999 -9.4050780558 -6.9292805741 -3.1044080228 -8.2242901636 
-4.8820985595 -2.8120360026 -7.9362610983 -8.8047538742 -8.3457725425 -9.9569613194 -9.2502111157 -9.4494822126 -9.2381826287 
-9.4287545129 -9.6825252589 -9.835334368 -9.4515456859 -9.8519584038 -9.9434741312 -9.7622377116 -9.8548082269 -9.987178057 
-9.9010994196 -9.7309758258 -9.8921982362 5.3539440614 4.8904243352 8.4929194664 9.118246322 7.8146037359 9.0628055191 
5.082225193 8.3309043122 6.3648320766 8.1986030335 4.3889651304 7.1139574159 7.7270252033 7.9537761377 6.243256674 
8.7899077947 8.610089945 8.4664369605 8.1658905049 8.7151373654 7.9299496601 9.5495827262 8.1404318901 9.6574161065 
9.7493385598 7.4324679116 8.1742629761 7.7255568046 8.2923606168 7.3665022806 8.8665985916 7.9800397432 8.5626091008 
7.5463042244 9.2003937111 9.2002897355 8.9742180758 8.8974305317 8.9146249334 9.365546515 9.1896015616 9.3967579017 
9.1963512047 9.3969729257 7.9332619567 7.9699853831 7.2391834965 7.6605560628 7.9389508493 7.9454936249 9.1889246652 
8.8767276475 9.5914607191 9.5307275822 6.4401603165 9.1973674279 7.427755454 9.5604674248 9.0977811199 9.4314083988 
9.3935251108 9.769347385 9.3939972457 9.3422950152 9.9358232896 9.1416896982 8.9741653456 9.9851367615 9.0250177076 
8.986613327 8.844990908 9.8599165756 8.7384802855 9.8807592795 9.9732718905 8.6211178038 6.3266868606 8.549111523 
7.0228978723 7.6733183877 8.2262767739 9.1400227836 9.9149821647 8.4343902079 8.8443294246 8.8301124141 9.9007937262 
9.8949951617 8.4658647828 9.9354372809 9.0716487289 7.4972868458 8.4917321377 6.7119076677 8.5105252299 7.5237846918 
9.0485998621 2.7401039621 6.8516565354 8.4275037646 9.1211711026 8.8087333956 7.0395416629 9.9069025738 9.6772449998 
9.9800770598 9.3095145995 9.6416905438 9.819657773 9.3195092799 9.7301233394 9.800024848 9.7372678253 9.6440904311 
9.8088860254 9.5205758142 9.3797767735 9.3327529071 5.912303224 1.0283061274 5.9500330818 7.7393047259 6.6279061921 
6.0845883698 7.1620086806 6.5035706462 5.8605272534 5.8486054522 7.4048963117 7.6334915704 4.4758680403 8.0964364044 
5.4190236774 -2.0041838326 -2.0207324729 1.297308559 3.463831882 -0.20524031182 0.14430985062 -2.6568950847 -3.9511454121 
-3.6860329392 -2.8365846143 -4.9731736846 -5.3679592795 -3.1533344471 -3.1931209533 -4.2709438543 -0.64260359327 -4.2697499633 
-0.31793414522 -2.6641079129 2.6638678052 1.4569146595 -0.51306505949 2.9073431253 -0.5109854262 0.020757646053 -2.6131021114 
-3.5368877853 -1.7266735647 -1.4864519973 -5.5222571196 -6.8313174244 -5.1422051822 -6.4869806235 -6.1290097431 -5.1418063923 
-2.4872055378 -2.8799229193 -2.8315987598 0.15803339254 -4.701472945 -4.8912683729 -4.9324712211 -3.6768550696 -5.7968085345 
-5.8480520103 -1.4308248693 -1.1157141136 -1.8206664893 -3.8005181444 -0.95538546857 -1.682539395 -1.4716105732 -1.4297194253 
-4.0774754259 -4.0858154606 -3.7109196266 0.70596850839 2.5720901513 0.60279462905 0.067783061298 6.7080148563 7.3560892417 
3.235475092 4.5198142276 5.6068936526 6.5937430208 6.059767951 3.2326231738 3.4762297782 1.5810024155 3.9442801543 
0.83206154968 2.0261559857 3.4245198789 1.5151532235 2.2493270887 6.6349198398 6.2096497337 4.6325421132 0.22890442288 
2.5361596636 4.6059962544 4.6187592874 8.318182253 0.20466099603 1.9231671548 2.3690481104 7.1199806402 1.8684353772 
1.3784069735 1.8019215486 1.6218694015 0.027849841453 -0.12356755574 0.022794770029 0.47722639696 0.034732225392 0.41621728251 
0.72466983056 0.49696299317 1.7337492633 1.9720418306 1.5944132916 5.5430508306 6.6986771072 3.4906443243 3.0846252467 
4.6733907352 4.8485543082 0.38158618665 5.1846006963 2.0989530543 4.0422631479 1.900544907 3.4822373871 5.452986645 
-0.87537765982 3.8058609705 -2.2622494924 -2.2834700755 1.4965856731 2.7669438784 0.013811066271 0.068516236079 -1.5928858249 
-3.2332744922 -1.6742631289 -2.9636892972 -2.3117340501 -2.826883208 -5.0723556387 -5.0959062672 -3.4405538356 -0.21241309432 
-2.0860865398 0.43914064698 -3.1672429228 2.167774325 2.7999219034 -0.22733652108 1.2493906293 0.36084957483 -0.35129296511 
-3.04969768 -3.3724916346 -1.004803601 -1.1019331588 -3.0258124134 -5.9428360395 -2.7052424236 -5.2208627816 -4.9711481415 
-3.429602574 -1.2426261538 -2.8207508585 -1.4399447309 -0.27886573924 -3.8948514148 -5.4824197103 -5.0647764567 -4.2094378297 
-3.78563964 -5.1567058053 -1.2008713443 -0.72130560085 -0.71803248978 -0.98517461359 -2.6731490675 -2.6292869397 -3.4689413565 
-1.9630128692 -1.6011931556 -3.8118914784 -1.9657196406 1.5711296166 1.3898956608 1.3759085591 0.67234362288 0.077998806803 
3.7925699237 1.0098186718 8.1114585655 5.4401269701 5.3980440168 7.8449607632 7.1700673909 0.92733898062 2.4565236491 
2.4547223971 0.55578658939 -1.2148593879 2.58105767 -0.76756426585 2.9846111479 4.1796762176 1.9975872243 4.8700251614 
0.052985520048 5.7580664468 7.5465509481 3.4220741872 2.6602251702 0.29364457624 2.626115521 2.6994106513 5.2102512787 
2.2050017577 1.0391521408 2.1820306785 -1.0515418329 1.4143400272 0.50831431817 1.6928988161 1.8719917445 -1.708704257 
0.11134266806 -1.0827032146 -0.3564201281 2.3091383089 -0.049363843056 0.41527757928 
