# vtk DataFile Version 5.1
vtk output
ASCII
DATASET POLYDATA
POINTS 242 float
0 0 0 0 0 10 0.0911085 10.2428 0.138425 
0.132891 10.1842 10.1325 10 0 0 10 0 10 
9.97065 10.5556 0.0576416 9.93539 10.1741 10.0014 0 0 2.5 
0 0 5 0 0 7.5 0 2.5 0 
0 5 0 0 7.5 0 0.121954 11.3416 2.26062 
-0.0785421 11.388 4.9749 -0.451141 11.2405 7.9316 0 2.5 10 
0 5 10 0 7.5 10 10 0 2.5 
10 0 5 10 0 7.5 10 2.5 0 
10 5 0 10 7.5 0 9.86725 11.2306 2.05708 
9.88197 11.4075 4.88093 9.83264 11.0485 7.86028 10 2.5 10 
10 5 10 10 7.5 10 2.5 0 0 
5 0 0 7.5 0 0 2.5 0 10 
5 0 10 7.5 0 10 2.74875 10.7348 0.294842 
4.8068 10.678 0.10225 7.13384 10.5567 0.101563 2.85905 10.5927 10.56 
4.74164 10.5565 10.0191 6.86851 10.5461 10.0458 0 6.1274 1.32078 
0 6.1274 8.67922 0 9.3137 6.83961 0 9.3137 3.16039 
0 6.1274 5 0 2.94111 3.16039 0 2.94111 6.83961 
0 4.53426 9.59902 0 7.72055 9.59902 0 7.72055 7.75941 
0 9.3137 8.67922 0 4.53426 0.400976 0 7.72055 2.24059 
0 7.72055 0.400976 0 9.3137 1.32078 0 9.3137 5 
0 7.72055 4.08019 0 6.1274 3.16039 0 7.72055 5.91981 
0 6.1274 6.83961 0 4.53426 2.24059 0 2.94111 1.32078 
0 1.34796 0.400976 0 1.34796 2.24059 0 1.34796 4.08019 
0 4.53426 7.75941 0 2.94111 8.67922 0 1.34796 5.91981 
0 1.34796 7.75941 0 1.34796 9.59902 0 2.94111 5 
0 4.53426 5.91981 0 4.53426 4.08019 10 6.1274 1.32078 
10 6.1274 8.67922 10 9.3137 6.83961 10 9.3137 3.16039 
10 6.1274 5 10 2.94111 3.16039 10 2.94111 6.83961 
10 4.53426 9.59902 10 7.72055 9.59902 10 7.72055 7.75941 
10 9.3137 8.67922 10 4.53426 0.400976 10 7.72055 2.24059 
10 7.72055 0.400976 10 9.3137 1.32078 10 9.3137 5 
10 7.72055 4.08019 10 6.1274 3.16039 10 7.72055 5.91981 
10 6.1274 6.83961 10 4.53426 2.24059 10 2.94111 1.32078 
10 1.34796 0.400976 10 1.34796 2.24059 10 1.34796 4.08019 
10 4.53426 7.75941 10 2.94111 8.67922 10 1.34796 5.91981 
10 1.34796 7.75941 10 1.34796 9.59902 10 2.94111 5 
10 4.53426 5.91981 10 4.53426 4.08019 3.8726 0 1.32078 
3.8726 0 8.67922 0.686298 0 6.83961 0.686298 0 3.16039 
3.8726 0 5 7.05889 0 3.16039 7.05889 0 6.83961 
5.46574 0 9.59902 2.27945 0 9.59902 2.27945 0 7.75941 
0.686298 0 8.67922 5.46574 0 0.400976 2.27945 0 2.24059 
2.27945 0 0.400976 0.686298 0 1.32078 0.686298 0 5 
2.27945 0 4.08019 3.8726 0 3.16039 2.27945 0 5.91981 
3.8726 0 6.83961 5.46574 0 2.24059 7.05889 0 1.32078 
8.65204 0 0.400976 8.65204 0 2.24059 8.65204 0 4.08019 
5.46574 0 7.75941 7.05889 0 8.67922 8.65204 0 5.91981 
8.65204 0 7.75941 8.65204 0 9.59902 7.05889 0 5 
5.46574 0 5.91981 5.46574 0 4.08019 3.17861 13.6471 0.38796 
3.39557 13.378 9.63859 0.18442 13.101 6.96798 0.378948 13.2606 3.18812 
1.14299 17.1167 5.37733 8.91438 15.5458 0.762172 8.76407 15.1879 9.12111 
5.51467 12.8303 9.79978 1.60001 12.3178 9.90394 0.865843 14.4854 9.36985 
0.520191 12.6533 9.62668 5.6212 12.6685 0.3429 0.751452 14.7655 0.638563 
1.37442 12.5878 0.279979 0.442677 12.7864 0.605664 0.295261 13.528 4.99802 
0.679243 15.3926 3.90228 1.17423 16.8904 0.932369 0.630116 15.1505 6.18 
1.18561 15.8809 9.08438 5.67533 15.639 0.592258 7.62052 13.6934 0.513214 
8.6505 12.2214 0.436819 9.39683 13.7092 0.570015 9.47085 13.3943 3.21427 
5.18726 15.4697 9.28224 7.33505 13.6803 9.43066 9.43448 13.2864 6.23167 
9.32006 13.0447 9.40231 8.32464 12.1 9.64666 9.08286 14.7467 4.52732 
4.75792 25.723 8.41846 4.48638 27.0669 2.15688 1.32078 3.8726 0 
8.67922 3.8726 0 6.83961 0.686298 0 3.16039 0.686298 0 
5 3.8726 0 3.16039 7.05889 0 6.83961 7.05889 0 
9.59902 5.46574 0 9.59902 2.27945 0 7.75941 2.27945 0 
8.67922 0.686298 0 0.400976 5.46574 0 2.24059 2.27945 0 
0.400976 2.27945 0 1.32078 0.686298 0 5 0.686298 0 
4.08019 2.27945 0 3.16039 3.8726 0 5.91981 2.27945 0 
6.83961 3.8726 0 2.24059 5.46574 0 1.32078 7.05889 0 
0.400976 8.65204 0 2.24059 8.65204 0 4.08019 8.65204 0 
7.75941 5.46574 0 8.67922 7.05889 0 5.91981 8.65204 0 
7.75941 8.65204 0 9.59902 8.65204 0 5 7.05889 0 
5.91981 5.46574 0 4.08019 5.46574 0 1.32078 3.8726 10 
8.67922 3.8726 10 6.83961 0.686298 10 3.16039 0.686298 10 
5 3.8726 10 3.16039 7.05889 10 6.83961 7.05889 10 
9.59902 5.46574 10 9.59902 2.27945 10 7.75941 2.27945 10 
8.67922 0.686298 10 0.400976 5.46574 10 2.24059 2.27945 10 
0.400976 2.27945 10 1.32078 0.686298 10 5 0.686298 10 
4.08019 2.27945 10 3.16039 3.8726 10 5.91981 2.27945 10 
6.83961 3.8726 10 2.24059 5.46574 10 1.32078 7.05889 10 
0.400976 8.65204 10 2.24059 8.65204 10 4.08019 8.65204 10 
7.75941 5.46574 10 8.67922 7.05889 10 5.91981 8.65204 10 
7.75941 8.65204 10 9.59902 8.65204 10 5 7.05889 10 
5.91981 5.46574 10 4.08019 5.46574 10 
POLYGONS 481 1440
OFFSETS vtktypeint64
0 3 6 9 12 15 18 21 24 
27 30 33 36 39 42 45 48 51 
54 57 60 63 66 69 72 75 78 
81 84 87 90 93 96 99 102 105 
108 111 114 117 120 123 126 129 132 
135 138 141 144 147 150 153 156 159 
162 165 168 171 174 177 180 183 186 
189 192 195 198 201 204 207 210 213 
216 219 222 225 228 231 234 237 240 
243 246 249 252 255 258 261 264 267 
270 273 276 279 282 285 288 291 294 
297 300 303 306 309 312 315 318 321 
324 327 330 333 336 339 342 345 348 
351 354 357 360 363 366 369 372 375 
378 381 384 387 390 393 396 399 402 
405 408 411 414 417 420 423 426 429 
432 435 438 441 444 447 450 453 456 
459 462 465 468 471 474 477 480 483 
486 489 492 495 498 501 504 507 510 
513 516 519 522 525 528 531 534 537 
540 543 546 549 552 555 558 561 564 
567 570 573 576 579 582 585 588 591 
594 597 600 603 606 609 612 615 618 
621 624 627 630 633 636 639 642 645 
648 651 654 657 660 663 666 669 672 
675 678 681 684 687 690 693 696 699 
702 705 708 711 714 717 720 723 726 
729 732 735 738 741 744 747 750 753 
756 759 762 765 768 771 774 777 780 
783 786 789 792 795 798 801 804 807 
810 813 816 819 822 825 828 831 834 
837 840 843 846 849 852 855 858 861 
864 867 870 873 876 879 882 885 888 
891 894 897 900 903 906 909 912 915 
918 921 924 927 930 933 936 939 942 
945 948 951 954 957 960 963 966 969 
972 975 978 981 984 987 990 993 996 
999 1002 1005 1008 1011 1014 1017 1020 1023 
1026 1029 1032 1035 1038 1041 1044 1047 1050 
1053 1056 1059 1062 1065 1068 1071 1074 1077 
1080 1083 1086 1089 1092 1095 1098 1101 1104 
1107 1110 1113 1116 1119 1122 1125 1128 1131 
1134 1137 1140 1143 1146 1149 1152 1155 1158 
1161 1164 1167 1170 1173 1176 1179 1182 1185 
1188 1191 1194 1197 1200 1203 1206 1209 1212 
1215 1218 1221 1224 1227 1230 1233 1236 1239 
1242 1245 1248 1251 1254 1257 1260 1263 1266 
1269 1272 1275 1278 1281 1284 1287 1290 1293 
1296 1299 1302 1305 1308 1311 1314 1317 1320 
1323 1326 1329 1332 1335 1338 1341 1344 1347 
1350 1353 1356 1359 1362 1365 1368 1371 1374 
1377 1380 1383 1386 1389 1392 1395 1398 1401 
1404 1407 1410 1413 1416 1419 1422 1425 1428 
1431 1434 1437 1440 
CONNECTIVITY vtktypeint64
51 17 18 17 51 70 51 18 45 
53 45 52 3 52 19 46 53 54 
52 54 53 54 16 46 3 16 54 
52 3 54 52 45 19 18 19 45 
55 44 12 44 13 12 57 44 56 
58 56 47 56 58 57 15 14 47 
14 2 58 47 14 58 57 2 13 
13 44 57 2 57 58 59 46 15 
60 47 56 16 15 46 59 15 47 
61 56 44 48 60 61 56 61 60 
53 46 62 63 62 48 45 53 63 
62 63 53 60 48 62 59 62 46 
47 60 59 62 59 60 64 44 55 
65 55 11 49 64 65 55 65 64 
11 0 66 68 49 67 8 9 68 
0 67 66 67 8 68 67 0 8 
65 67 49 67 65 66 12 11 55 
65 11 66 51 45 69 70 69 50 
69 70 51 72 50 71 72 71 10 
9 10 71 1 17 73 1 72 10 
72 1 73 50 72 70 73 17 70 
73 70 72 74 71 50 68 9 71 
49 68 74 71 74 68 75 50 69 
63 69 45 48 75 63 69 63 75 
64 49 76 61 76 48 44 64 61 
76 61 64 75 48 76 74 76 49 
50 75 74 76 74 75 84 30 29 
29 103 84 84 78 30 86 85 78 
7 31 85 79 87 86 85 86 87 
87 79 28 7 87 28 85 87 7 
85 31 78 30 78 31 88 24 77 
77 24 25 90 89 77 91 80 89 
89 90 91 27 80 26 26 91 6 
80 91 26 90 25 6 25 90 77 
6 91 90 92 27 79 93 89 80 
28 79 27 92 80 27 94 77 89 
81 94 93 89 93 94 86 95 79 
96 81 95 78 96 86 95 86 96 
93 95 81 92 79 95 80 92 93 
95 93 92 97 88 77 98 23 88 
82 98 97 88 97 98 23 99 4 
101 100 82 20 101 21 4 99 100 
100 101 20 100 20 4 98 82 100 
100 99 98 24 88 23 98 99 23 
84 102 78 103 83 102 102 84 103 
105 104 83 105 22 104 21 104 22 
5 106 29 5 22 105 105 106 5 
83 103 105 106 103 29 106 105 103 
107 83 104 101 104 21 82 107 101 
104 101 107 108 102 83 96 78 102 
81 96 108 102 108 96 97 109 82 
94 81 109 77 94 97 109 97 94 
108 109 81 107 82 109 83 107 108 
109 108 107 37 36 117 117 36 111 
119 111 118 1 118 35 112 119 120 
118 120 119 120 10 112 1 10 120 
118 1 120 118 111 35 36 35 111 
121 110 33 32 33 110 123 110 122 
124 122 113 123 0 32 122 124 123 
9 8 113 8 0 124 113 8 124 
0 123 124 123 32 110 125 112 9 
126 113 122 10 9 112 125 9 113 
127 122 110 114 126 127 122 127 126 
119 112 128 129 128 114 111 119 129 
128 129 119 126 114 128 125 128 112 
113 126 125 128 125 126 130 110 121 
131 121 34 115 130 131 121 131 130 
34 4 132 134 115 133 20 21 134 
4 133 132 133 20 134 133 4 20 
131 133 115 133 131 132 33 34 121 
131 34 132 117 111 135 136 135 116 
135 136 117 138 116 137 138 137 22 
21 22 137 5 37 139 138 5 139 
5 138 22 116 138 136 136 37 117 
139 37 136 139 136 138 140 137 116 
134 21 137 115 134 140 137 140 134 
141 116 135 129 135 111 114 141 129 
135 129 141 130 115 142 127 142 114 
110 130 127 142 127 130 141 114 142 
140 142 115 116 141 140 142 140 141 
43 150 42 150 144 42 152 151 144 
3 41 151 145 153 152 151 152 153 
153 145 16 3 153 16 151 153 3 
151 41 144 42 144 41 154 39 143 
38 143 39 156 155 143 157 146 155 
156 38 2 155 156 157 15 146 14 
14 157 2 146 157 14 2 157 156 
156 143 38 158 15 145 159 155 146 
16 145 15 158 146 15 160 143 155 
147 160 159 155 159 160 152 161 145 
162 147 161 144 162 152 161 152 162 
159 161 147 158 145 161 146 158 159 
161 159 158 163 154 143 164 40 154 
148 164 163 154 163 164 40 165 6 
167 166 148 26 167 27 6 165 166 
166 167 26 166 26 6 164 148 166 
166 165 164 39 154 40 164 165 40 
150 168 144 169 149 168 168 150 169 
171 170 149 171 28 170 27 170 28 
7 172 43 171 172 7 7 28 171 
149 169 171 169 150 43 172 169 43 
172 171 169 173 149 170 167 170 27 
148 173 167 170 167 173 174 168 149 
162 144 168 147 162 174 168 174 162 
163 175 148 160 147 175 143 160 163 
175 163 160 174 175 147 173 148 175 
149 173 174 175 174 173 25 24 183 
183 24 177 185 177 184 4 184 23 
178 185 186 184 186 185 186 34 178 
4 34 186 184 4 186 184 177 23 
24 23 177 187 176 12 11 12 176 
189 176 188 190 188 179 189 0 11 
188 190 189 33 32 179 32 0 190 
179 32 190 0 189 190 189 11 176 
191 178 33 192 179 188 34 33 178 
191 33 179 193 188 176 180 192 193 
188 193 192 185 178 194 195 194 180 
177 185 195 194 195 185 192 180 194 
191 194 178 179 192 191 194 191 192 
196 176 187 197 187 13 181 196 197 
187 197 196 13 2 198 200 181 199 
38 39 200 2 199 198 199 38 200 
199 2 38 197 199 181 199 197 198 
12 13 187 197 13 198 183 177 201 
202 201 182 201 202 183 204 182 203 
204 203 40 39 40 203 6 25 205 
204 6 205 6 204 40 182 204 202 
202 25 183 205 25 202 205 202 204 
206 203 182 200 39 203 181 200 206 
203 206 200 207 182 201 195 201 177 
180 207 195 201 195 207 196 181 208 
193 208 180 176 196 193 208 193 196 
207 180 208 206 208 181 182 207 206 
208 206 207 31 216 30 216 210 30 
218 217 210 5 29 217 211 219 218 
217 218 219 219 211 37 5 219 37 
217 219 5 217 29 210 30 210 29 
220 18 209 17 209 18 222 221 209 
223 212 221 222 17 1 221 222 223 
36 212 35 35 223 1 212 223 35 
1 223 222 222 209 17 224 36 211 
225 221 212 37 211 36 224 212 36 
226 209 221 213 226 225 221 225 226 
218 227 211 228 213 227 210 228 218 
227 218 228 225 227 213 224 211 227 
212 224 225 227 225 224 229 220 209 
230 19 220 214 230 229 220 229 230 
19 231 3 233 232 214 41 233 42 
3 231 232 232 233 41 232 41 3 
230 214 232 232 231 230 18 220 19 
230 231 19 216 234 210 235 215 234 
234 216 235 237 236 215 237 43 236 
42 236 43 7 238 31 237 238 7 
7 43 237 215 235 237 235 216 31 
238 235 31 238 237 235 239 215 236 
233 236 42 214 239 233 236 233 239 
240 234 215 228 210 234 213 228 240 
234 240 228 229 241 214 226 213 241 
209 226 229 241 229 226 240 241 213 
239 214 241 215 239 240 241 240 239 

CELL_DATA 480
SCALARS scalars double
LOOKUP_TABLE default
-0 -0 -0 -0 0.48126842744 -0 -0 -2.2797847369 -1.5647308395 
0.39107154996 -0 -0 -0 -0 -0 -0 -0 0.27072860992 
0.70071755806 0.6002935768 0.34139399257 -0 0.3054665021 -0.37837985925 -0 -1.549550939 -0.37837985925 
-0 -0 -0 -0 -0 -0 -0 -0 -0 
-0 -0 -0 -0 -0 -0 -0 -0 -0 
-0 -0 -0 -0 -0 -0 -0 -0 -0 
-0 -0 -0 -0 -0 -0 -0 -0 -0 
-0 -0 -0 -0 -0 -0 -0 -0 -0 
-0 -0 -0 -0 -0 -0 -0 -0 -0 
-0 -0 -0 0.24145411168 -0 -0 0.96024822024 0.9106117181 0.2049081341 
-0 -0 -0 -0 -0 -0 -0 0.63811933161 0.56623514096 
0.69085687143 0.09703884418 -0 0.085549535629 0.56280124088 -0 0.80695231783 0.56280124088 -0 
-0 -0 -0 -0 -0 -0 -0 -0 -0 
-0 -0 -0 -0 -0 -0 -0 -0 -0 
-0 -0 -0 -0 -0 -0 -0 -0 -0 
-0 -0 -0 -0 -0 -0 -0 -0 -0 
-0 -0 -0 -0 -0 -0 -0 -0 -0 
-0 -0 -0 -0 -0 -0 -0 -10 -10 
-10 -10 -10 -10 -10 -10 -10 -10 -10 
-10 -10 -10 -10 -10 -10 -10 -10 -10 
-10 -10 -10 -10 -10 -10 -10 -10 -10 
-10 -10 -10 -10 -10 -10 -10 -10 -10 
-10 -10 -10 -10 -10 -10 -10 -10 -10 
-10 -10 -10 -10 -10 -10 -10 -10 -10 
-10 -10 -10 -10 -10 -10 -10 -10 -10 
-10 -10 -10 -10 -10 -10 -10 -10 -10 
-10 -10 -10 -10 -10 -10 1.0003588323 1.1159636062 2.398325435 
2.290708909 2.0425040109 1.7207143733 4.0052471776 2.1405807876 2.2404562581 3.2245906863 2.5471287894 1.0965670311 
0.45361111435 1.537174582 1.5479298182 0.3126976977 0.65165003778 1.6810541619 1.4785642857 1.5781713576 2.1092083192 
0.25301979198 1.7222638262 1.5629929922 2.7132489525 1.7237520411 1.4386395361 2.7625949895 2.0283121677 2.5624045692 
2.9208056056 2.0365073703 2.4535758094 2.5477640835 2.0891200234 1.6190919577 2.0188952386 0.8337097616 1.2715033293 
0.95251964953 0.82810350729 2.105642678 2.537505222 1.8895001436 1.4083301844 1.8315808574 1.8060230374 1.1199783941 
0.73578889175 1.1766700369 1.1555570949 1.892757057 1.4938332041 2.0361586862 2.5742538126 2.1101315562 2.0368646359 
2.1326299238 2.1204565237 2.1781378606 1.4529857307 1.7450980088 1.8122779398 1.7874613908 2.7772722544 2.1831334916 
2.6414313142 2.5696823443 0.85980154825 1.9179674804 3.4598696646 0.82180940906 1.4114200212 3.1186600234 1.4466585475 
1.3164049116 3.4973966474 3.5501170169 3.57046503 3.5535815844 -0 -0 -0 -0 
-0 -0 -0 -0 -0 -0 -0 -0 -0 
-0 -0 -0 -0 -0 -0 -0 -0 -0 
-0 -0 -0 -0 -0 -0 -0 -0 -0 
-0 -0 -0 -0 -0 -0 -0 -0 -0 
-0 0.55005701249 -0 0.82580875885 0.86688690129 1.4016885898 1.3198019057 -0 -0 
-0 -0 -0 -0 -0 -0 0.53248517708 0.5172132265 0.19365549442 
0.30266377566 0.48182884965 -0 -0 -0 -0 -0 0.50405075877 -0 
-0 -0 -0 -0 -0 -0 -0 -0 -0 
-0 -0 -0 -0 -0 -0 -0 -0 -0 
-0 -0 -0 -0 -0 -0 -0 -0 -0 
-0 -0 -0 -0 -0 -0 -0 -0 -0 
-0 -0 -0 -0 -0 -0 -0 -0 -0 
-0 -0 -0 -0 -0 -0 -0 -0 -0 
-0.56702948499 -0 -1.0432144092 -0.86183243297 -2.7725239492 -2.4143604371 -0 -0 -0 
-0 -0 -0 -0 -0 -0.24172941279 -0.17835215457 -0.0056918229074 -0.0093056523908 
-0.18419640946 -0 -0 -0 -0 -0 -0.1000807457 -0 -0 
-0 -0 -0 -0 -0 -0 -0 -0 -0 
-0 -0 -0 
