# vtk DataFile Version 5.1
vtk output
ASCII
DATASET POLYDATA
POINTS 254 float
-17.68 -13.5997 -16.0305 -11.8837 -14.5386 -0.542929 -14.7942 -3.39685 -15.4343 
-20.7366 3.85524 0.0276184 4.00523 -15.3304 -16.2618 2.102 -12.6646 -3.85574 
-0.478844 4.02208 -14.247 -4.40865 -3.10552 -0.177837 -27.546 -27.9861 2.93085 
-38.895 -42.7962 28.1115 -30.4238 -31.5467 21.7976 -19.7374 -22.7271 10.0716 
-24.6385 -3.08855 -22.8818 -33.1692 9.88069 -24.3643 -37.2012 29.1138 -35.4949 
-23.4346 12.7546 -24.5997 -21.4686 -9.94173 0.652943 -30.7254 -16.8489 17.1789 
-38.1125 -19.7148 32.385 -25.8426 -6.21044 14.0929 -23.5429 5.84852 -6.50696 
-28.654 18.9308 -14.7156 -34.7997 31.319 -20.6047 -24.5907 16.2121 -10.6087 
-3.75487 -21.2551 -2.08368 -9.2243 -27.2277 14.6354 -20.4899 -37.9423 32.1375 
-8.37826 -23.5346 15.4029 -8.45987 1.55262 -22.7397 -15.6711 14.3886 -32.5847 
-26.2274 32.3325 -39.612 -9.62161 16.1365 -24.4216 -8.93673 -4.29007 3.52898 
-12.8653 -12.0665 19.1876 -20.7627 -22.2018 36.8593 -11.726 -9.90249 15.7356 
-6.41496 1.73166 -8.57745 -15.1932 13.9925 -13.4549 -22.5554 33.4925 -23.8991 
-11.2922 15.3138 -12.4461 -4.7704 -17.465 -26.191 10.6343 -26.0496 -29.0469 
34.0824 -32.4675 -32.607 20.3723 -23.2646 -25.2414 -0.414255 -18.7816 -6.70189 
11.1237 -20.3058 -15.8091 28.0905 -32.7401 -20.8999 16.0158 -20.6168 -12.455 
3.96241 -10.8083 -24.7102 25.4059 -25.821 -30.2052 19.7486 -14.4192 -27.4973 
12.3787 -3.28239 -20.8667 -1.06531 -4.84221 -5.99401 17.977 -16.9828 -13.1145 
29.5183 -22.2588 -22.0571 12.9016 -14.1783 -10.2321 -57.5393 36.9013 -17.8077 
-58.2481 29.9247 -2.11682 -42.7524 3.07785 16.6957 -40.7501 2.25283 7.17385 
-83.4299 14.2515 29.322 -54.0704 -4.40506 8.43651 -53.4998 -3.28572 20.0543 
-43.0197 19.735 -2.81985 -39.3242 22.1638 -4.60417 -48.5187 14.128 8.01521 
-32.7346 8.38774 3.75396 -46.01 17.3508 -15.0279 -50.251 20.6395 -5.61816 
-38.3336 22.8147 -19.4406 -32.2507 5.83031 -8.56558 -52.1877 -5.44794 25.0561 
-61.9489 19.7856 8.22868 -70.1326 34.5913 -2.52423 -65.2785 7.29817 23.825 
-67.7957 21.4964 14.2397 -57.495 13.2942 -2.37488 -42.8987 1.68015 -7.07734 
-33.0251 -13.3359 -8.02909 -41.5573 -18.8771 8.53097 -51.4411 -27.4728 28.9988 
-55.5679 9.48661 11.7015 -39.5043 4.70313 6.72141 -45.7201 -17.0157 20.9119 
-36.2188 -8.63974 13.7883 -25.5411 -5.06076 5.28831 -61.1591 -12.9943 28.3769 
-73.9211 0.940891 29.0153 -67.1987 10.0739 13.9508 -48.0449 34.3046 -20.2454 
-43.7249 35.0788 -6.4118 -25.9478 -2.87979 23.1886 -22.899 1.68018 12.3989 
-74.4002 24.8222 22.4053 -40.9205 0.96887 14.1881 -38.9636 -1.31422 19.423 
-29.9569 21.8397 -5.13425 -26.9466 20.6916 -6.43987 -37.5903 16.9144 10.9243 
-19.5125 6.95016 7.45087 -30.4424 21.653 -21.4294 -36.0615 16.8775 0.351239 
-25.7093 24.2729 -17.6341 -17.3155 10.3025 -5.50645 -35.3147 -9.6058 34.6006 
-43.5712 12.7139 14.4837 -62.881 33.3568 1.34853 -52.0144 6.63759 32.8079 
-59.333 30.7081 8.66495 -45.2543 15.7285 -3.5062 -29.1046 5.22852 -6.88776 
-10.5369 -4.53223 -8.14044 -22.756 -10.1669 5.84254 -28.7504 -15.8981 19.3506 
-41.6007 19.1802 7.7562 -25.1337 7.62453 5.21835 -35.7141 -22.217 37.0989 
-24.6813 -12.888 21.3628 -13.9155 -7.83143 5.77458 -50.102 -6.80593 32.9792 
-55.334 14.0106 21.0218 -65.122 8.78345 29.6332 13.3921 -45.565 -11.2665 
-19.9918 -35.5245 14.7543 -12.8169 -44.6817 16.7256 -19.7 -41.5091 11.5262 
19.3119 -85.3024 24.6721 39.7488 -62.1253 -5.74818 19.1827 -58.2175 6.69082 
2.8627 -35.7466 -1.18727 11.7205 -40.206 -3.06454 1.01837 -51.2463 11.8473 
-2.4076 -33.7794 6.75313 27.46 -39.0147 -21.9485 -2.48164 -47.4232 0.342242 
0.255719 -34.3681 -14.0957 -14.1733 -32.394 -6.75295 -22.02 -53.9084 26.4244 
-2.54939 -59.5529 12.4312 14.1053 -61.5992 5.33054 0.248975 -70.2271 27.6647 
-18.3977 -72.9771 38.894 24.8872 -55.845 -8.09522 38.9394 -50.4267 -19.5358 
15.6424 -28.7318 -8.68591 9.87525 -39.1444 4.77974 2.36494 -45.8726 15.8524 
-4.37444 -48.3193 15.0446 23.4254 -44.1964 -3.65554 0.524395 -55.4826 27.5765 
0.078132 -43.7911 19.4599 6.05233 -30.265 3.20583 29.436 -67.9974 9.58982 
9.96674 -70.0102 20.9508 35.0395 -83.5441 13.4897 32.9677 -44.2048 -19.3416 
14.7008 -34.0429 4.9529 -19.8346 -25.7822 23.4094 -13.1237 -28.5649 8.75286 
24.3237 -86.011 32.8432 15.3934 -31.3431 4.36525 5.69853 -48.0118 28.9312 
29.7841 -36.2671 -6.10344 3.19104 -19.8153 0.744009 -3.38953 -31.9263 18.7428 
-10.203 -12.4464 9.32712 25.3962 -27.3501 -18.445 7.11259 -36.6766 -0.975711 
13.2624 -27.8679 -18.2936 -4.61642 -19.9876 -8.69816 -25.3775 -36.8569 34.1751 
0.497436 -47.1078 13.9366 35.3031 -62.3383 -5.72373 -11.4255 -52.2868 37.492 
2.68099 -52.029 26.2682 25.6481 -40.8889 -7.85754 17.0634 -21.1733 -8.85474 
4.61478 -9.59093 -7.14523 5.29576 -17.451 5.58817 -0.649692 -26.081 17.1986 
23.6202 -49.1567 6.58226 17.1665 -32.0477 3.0609 -3.77222 -35.3937 29.2248 
-9.2393 -41.7429 39.4727 3.37353 -20.7168 10.0213 13.9557 -42.3428 14.8755 
19.5218 -61.7152 23.0963 27.1331 -55.3525 4.91963 9.52687 -20.305 -38.4276 
1.36839 15.7022 -48.7326 33.3117 -22.5334 -45.105 4.78924 -6.37243 -42.651 
41.0297 9.25631 -88.3234 -13.5752 30.592 -58.7175 23.3414 5.75501 -58.952 
-10.2726 29.1404 -51.8957 -1.52046 3.27629 -36.8923 22.0117 -5.30564 -49.5702 
12.5457 -7.65804 -31.4144 -9.6604 4.12846 -39.3497 -10.6889 16.6278 -54.9412 
-23.007 13.412 -37.4617 -12.3743 -1.92387 -36.1018 19.464 -15.204 -42.1645 
17.2597 -0.661347 -60.1935 15.0187 15.8198 -72.6973 38.2832 -10.3098 -60.5011 
23.2923 3.78262 -61.7743 -0.171957 10.1367 -54.9391 -18.8631 25.1859 -44.446 
-10.867 5.25215 -31.3747 -1.75259 6.65873 -41.2172 6.13373 9.87367 -47.3392 
5.40485 21.5165 -62.8209 -0.543356 18.9622 -44.7862 18.107 2.01152 -46.6531 
27.6948 -2.29311 -44.6982 5.01424 6.60694 -31.8813 8.58568 18.3444 -62.1353 
22.058 21.0881 -74.4718 3.9329 37.7983 -82.3896 -13.3197 24.2698 -32.9267 
39.0548 -24.3574 -23.0936 31.4144 -18.0199 -33.4531 3.38428 -6.57011 -25.0775 
25.5475 21.775 -78.9982 -0.23205 23.1748 -36.9003 20.2253 9.86994 -51.0996 
7.69449 7.43215 -25.3838 1.92301 7.86385 -24.8472 33.6275 -6.75129 -49.1635 
12.4727 -6.48463 -23.7908 -24.352 34.9373 -33.2721 -2.6494 8.03221 -31.5643 
-17.6218 9.73244 -20.3856 -7.25445 -1.56748 -12.2893 15.878 -11.4577 -31.5992 
10.7091 7.83854 -42.8118 0.212877 22.318 -49.9942 22.3035 1.70086 -51.6475 
46.5951 -3.92046 -65.0634 -12.1334 36.9176 -47.7519 -12.773 23.1721 -26.9315 
-9.07632 9.93178 -11.0481 2.24736 3.68618 -21.7224 16.7423 -2.20312 -28.2196 
34.4378 -6.34913 -42.1593 -1.48488 20.9245 -36.6972 30.6034 -7.55345 -36.5677 
18.5159 -1.56002 -30.9242 4.19407 4.14293 -18.4085 10.8606 19.1901 -48.3728 
27.3311 17.5048 -66.0135 1.55746 37.0413 -62.7871 
POLYGONS 505 1512
OFFSETS vtktypeint64
0 3 6 9 12 15 18 21 24 
27 30 33 36 39 42 45 48 51 
54 57 60 63 66 69 72 75 78 
81 84 87 90 93 96 99 102 105 
108 111 114 117 120 123 126 129 132 
135 138 141 144 147 150 153 156 159 
162 165 168 171 174 177 180 183 186 
189 192 195 198 201 204 207 210 213 
216 219 222 225 228 231 234 237 240 
243 246 249 252 255 258 261 264 267 
270 273 276 279 282 285 288 291 294 
297 300 303 306 309 312 315 318 321 
324 327 330 333 336 339 342 345 348 
351 354 357 360 363 366 369 372 375 
378 381 384 387 390 393 396 399 402 
405 408 411 414 417 420 423 426 429 
432 435 438 441 444 447 450 453 456 
459 462 465 468 471 474 477 480 483 
486 489 492 495 498 501 504 507 510 
513 516 519 522 525 528 531 534 537 
540 543 546 549 552 555 558 561 564 
567 570 573 576 579 582 585 588 591 
594 597 600 603 606 609 612 615 618 
621 624 627 630 633 636 639 642 645 
648 651 654 657 660 663 666 669 672 
675 678 681 684 687 690 693 696 699 
702 705 708 711 714 717 720 723 726 
729 732 735 738 741 744 747 750 753 
756 759 762 765 768 771 774 777 780 
783 786 789 792 795 798 801 804 807 
810 813 816 819 822 825 828 831 834 
837 840 843 846 849 852 855 858 861 
864 867 870 873 876 879 882 885 888 
891 894 897 900 903 906 909 912 915 
918 921 924 927 930 933 936 939 942 
945 948 951 954 957 960 963 966 969 
972 975 978 981 984 987 990 993 996 
999 1002 1005 1008 1011 1014 1017 1020 1023 
1026 1029 1032 1035 1038 1041 1044 1047 1050 
1053 1056 1059 1062 1065 1068 1071 1074 1077 
1080 1083 1086 1089 1092 1095 1098 1101 1104 
1107 1110 1113 1116 1119 1122 1125 1128 1131 
1134 1137 1140 1143 1146 1149 1152 1155 1158 
1161 1164 1167 1170 1173 1176 1179 1182 1185 
1188 1191 1194 1197 1200 1203 1206 1209 1212 
1215 1218 1221 1224 1227 1230 1233 1236 1239 
1242 1245 1248 1251 1254 1257 1260 1263 1266 
1269 1272 1275 1278 1281 1284 1287 1290 1293 
1296 1299 1302 1305 1308 1311 1314 1317 1320 
1323 1326 1329 1332 1335 1338 1341 1344 1347 
1350 1353 1356 1359 1362 1365 1368 1371 1374 
1377 1380 1383 1386 1389 1392 1395 1398 1401 
1404 1407 1410 1413 1416 1419 1422 1425 1428 
1431 1434 1437 1440 1443 1446 1449 1452 1455 
1458 1461 1464 1467 1470 1473 1476 1479 1482 
1485 1488 1491 1494 1497 1500 1503 1506 1509 
1512 
CONNECTIVITY vtktypeint64
20 21 82 22 63 21 65 57 64 
58 65 66 64 66 65 23 3 66 
19 18 58 3 19 66 66 19 58 
22 23 64 64 23 66 63 22 57 
57 22 64 67 13 77 14 13 67 
69 56 68 70 68 59 69 70 15 
68 70 69 16 2 70 70 59 16 
17 16 59 2 15 70 15 14 69 
56 14 67 69 14 56 71 17 59 
58 18 71 71 18 17 72 59 68 
73 68 56 60 72 73 68 73 72 
65 58 74 75 74 60 57 65 75 
74 75 65 72 60 74 71 74 58 
59 72 71 74 71 72 76 56 67 
61 76 77 67 77 76 13 12 77 
12 0 78 80 61 79 79 9 80 
8 78 0 9 79 8 78 8 79 
77 79 61 78 77 12 79 77 78 
63 57 81 82 81 62 63 82 21 
81 82 63 84 62 83 10 84 83 
80 10 83 84 10 11 1 20 85 
85 20 82 11 85 84 85 11 1 
62 84 82 85 82 84 10 80 9 
86 83 62 61 80 86 83 86 80 
87 62 81 75 81 57 60 87 75 
81 75 87 76 61 88 73 88 60 
56 76 73 88 73 76 87 60 88 
86 88 61 62 87 86 88 86 87 
36 115 37 38 37 96 98 97 90 
91 99 98 97 98 99 39 99 7 
35 91 34 7 99 35 99 91 35 
38 97 39 97 99 39 96 90 38 
90 97 38 100 110 29 30 100 29 
102 101 89 103 92 101 102 31 103 
101 102 103 32 103 6 103 32 92 
33 92 32 6 103 31 31 102 30 
89 100 30 102 89 30 104 92 33 
91 104 34 104 33 34 105 101 92 
106 89 101 93 106 105 101 105 106 
98 107 91 108 93 107 90 108 98 
107 98 108 105 107 93 104 91 107 
92 104 105 107 105 104 109 100 89 
94 110 109 100 109 110 29 110 28 
28 111 4 113 112 94 112 113 25 
24 4 111 25 24 112 111 112 24 
110 94 112 111 28 110 112 111 110 
96 114 90 115 95 114 96 37 115 
114 96 115 117 116 95 26 116 117 
113 116 26 117 27 26 5 118 36 
118 115 36 27 117 118 118 5 27 
95 115 117 118 117 115 26 25 113 
119 95 116 94 119 113 116 113 119 
120 114 95 108 90 114 93 108 120 
114 120 108 109 121 94 106 93 121 
89 106 109 121 109 106 120 121 93 
119 94 121 95 119 120 121 120 119 
47 46 148 45 129 46 131 123 130 
124 131 132 130 132 131 44 1 132 
11 10 124 1 11 132 132 11 124 
45 44 130 130 44 132 129 45 123 
123 45 130 133 42 143 41 42 133 
135 122 134 136 134 125 135 136 40 
134 136 135 8 0 136 136 125 8 
9 8 125 0 40 136 40 41 135 
122 41 133 135 41 122 137 9 125 
124 10 137 137 10 9 138 125 134 
139 134 122 126 138 139 134 139 138 
131 124 140 141 140 126 123 131 141 
140 141 131 138 126 140 137 140 124 
125 138 137 140 137 138 142 122 133 
127 142 143 133 143 142 42 43 143 
43 4 144 146 127 145 145 25 146 
24 144 4 25 145 24 144 24 145 
143 145 127 144 143 43 145 143 144 
129 123 147 148 147 128 129 148 46 
147 148 129 150 128 149 26 150 149 
146 26 149 150 26 27 5 47 151 
151 47 148 151 27 5 27 151 150 
128 150 148 151 148 150 26 146 25 
152 149 128 127 146 152 149 152 146 
153 128 147 141 147 123 126 153 141 
147 141 153 142 127 154 139 154 126 
122 142 139 154 139 142 153 126 154 
152 154 127 128 153 152 154 152 153 
55 181 54 53 54 162 164 163 156 
157 165 164 163 164 165 52 165 3 
19 157 18 3 165 19 165 157 19 
53 163 52 163 165 52 162 156 53 
156 163 53 166 176 50 49 166 50 
168 167 155 169 158 167 168 48 169 
167 168 169 16 169 2 169 16 158 
17 158 16 2 169 48 48 168 49 
155 166 49 168 155 49 170 158 17 
157 170 18 170 17 18 171 167 158 
172 155 167 159 172 171 167 171 172 
164 173 157 174 159 173 156 174 164 
173 164 174 171 173 159 170 157 173 
158 170 171 173 171 170 175 166 155 
160 176 175 166 175 176 50 176 51 
51 177 6 179 178 160 178 179 33 
32 6 177 33 32 178 177 178 32 
176 160 178 177 51 176 178 177 176 
162 180 156 181 161 180 162 54 181 
180 162 181 183 182 161 34 182 183 
179 182 34 183 35 34 7 184 55 
184 181 55 184 7 35 35 183 184 
161 181 183 184 183 181 34 33 179 
185 161 182 160 185 179 182 179 185 
186 180 161 174 156 180 159 174 186 
180 186 174 175 187 160 172 159 187 
155 172 175 187 175 172 186 187 159 
185 160 187 161 185 186 187 186 185 
31 30 214 29 195 30 197 189 196 
190 197 198 196 198 197 28 4 198 
43 42 190 4 43 198 198 43 190 
29 28 196 196 28 198 195 29 189 
189 29 196 199 14 209 13 14 199 
201 188 200 202 200 191 201 202 12 
200 202 201 40 0 202 202 191 40 
41 40 191 0 12 202 12 13 201 
188 13 199 201 13 188 203 41 191 
190 42 203 203 42 41 204 191 200 
205 200 188 192 204 205 200 205 204 
197 190 206 207 206 192 189 197 207 
206 207 197 204 192 206 203 206 190 
191 204 203 206 203 204 208 188 199 
193 208 209 199 209 208 14 15 209 
15 2 210 212 193 211 211 49 212 
48 210 2 49 211 48 210 48 211 
209 211 193 210 209 15 211 209 210 
195 189 213 214 213 194 195 214 30 
213 214 195 216 194 215 50 216 215 
212 50 215 216 50 51 6 31 217 
217 31 214 217 51 6 51 217 216 
194 216 214 217 214 216 50 212 49 
218 215 194 193 212 218 215 218 212 
219 194 213 207 213 189 192 219 207 
213 207 219 208 193 220 205 220 192 
188 208 205 220 205 208 219 192 220 
218 220 193 194 219 218 220 218 219 
39 247 38 37 38 228 230 229 222 
223 231 230 229 230 231 36 231 5 
47 223 46 5 231 47 231 223 47 
37 229 36 229 231 36 228 222 37 
222 229 37 232 242 22 21 232 22 
234 233 221 235 224 233 234 20 235 
233 234 235 44 235 1 235 44 224 
45 224 44 1 235 20 20 234 21 
221 232 21 234 221 21 236 224 45 
223 236 46 236 45 46 237 233 224 
238 221 233 225 238 237 233 237 238 
230 239 223 240 225 239 222 240 230 
239 230 240 237 239 225 236 223 239 
224 236 237 239 237 236 241 232 221 
226 242 241 232 241 242 22 242 23 
23 243 3 245 244 226 244 245 53 
52 3 243 53 52 244 243 244 52 
242 226 244 243 23 242 244 243 242 
228 246 222 247 227 246 228 38 247 
246 228 247 249 248 227 54 248 249 
245 248 54 249 55 54 7 250 39 
250 247 39 250 7 55 55 249 250 
227 247 249 250 249 247 54 53 245 
251 227 248 226 251 245 248 245 251 
252 246 227 240 222 246 225 240 252 
246 252 240 241 253 226 238 225 253 
221 238 241 253 241 238 252 253 225 
251 226 253 227 251 252 253 252 251 

CELL_DATA 504
SCALARS scalars double
LOOKUP_TABLE default
5.9268718195 5.6488929036 -6.4973627465 -6.8605813614 -6.0805585728 -6.6091162064 -5.7077187462 -6.4804481285 -6.4779020906 
-6.8672589505 -6.1135685553 6.3579124103 -7.5273423197 -4.3427690183 -4.6834619989 6.4878200352 6.4115150409 5.7526439277 
5.7787996173 6.6855576039 6.6854467841 5.9559928169 6.14939816 7.2650550087 -4.7743111908 7.4645068116 5.9498532693 
-5.8224582502 7.3938857245 6.4807477117 6.4656129972 6.7378809535 6.683524621 -6.8382709482 -5.564829558 -6.615472578 
-5.547301767 6.5408936441 -4.3444489252 6.0297073902 6.0268358034 -4.4318268146 -4.9869701561 -4.5708608104 -4.8892271895 
-6.6391915019 -5.5291059578 -5.1497207253 -6.4139948938 -5.4875071416 -6.102303244 -5.1291554343 -3.922144223 -4.4476231053 
5.4861437103 5.4711423237 5.3405093098 5.5655220844 2.8282119781 3.8312574083 4.3558495237 3.9601874812 5.241067707 
5.996885312 3.7514641086 3.8445128051 5.0305287939 5.0302511521 2.3907263037 3.2230469514 -5.0469027766 3.5682106284 
5.4199709841 4.9567184746 3.7432235692 3.8332667678 -4.5696272988 -4.6843923409 -4.0472786198 -4.3810148676 -4.6455992483 
-4.871899611 3.6189978169 -5.2935487066 -6.2395597727 -5.4030300247 6.6070043737 6.479913652 7.3559581318 5.770114593 
5.6735533889 5.5637711169 5.5912195062 6.5921505182 7.4404210125 -6.0952895724 6.1556278981 5.2639749131 5.7653877038 
-8.0714985883 -7.5874278355 -7.1166416861 -7.2543147455 -6.4513773855 -6.422033744 -6.5973318024 -7.4596289697 -8.0293979979 
6.7730104956 -8.7926337358 -6.4426672516 5.975293927 -6.5457555663 -7.607806703 -7.8362928113 -7.342219057 -7.4358919732 
6.4723888006 7.2006567715 7.0217297595 7.0875431623 -7.8278886878 5.4840454724 -6.8753787855 -6.5241572638 6.2331077056 
7.0225924525 5.9151077438 6.8461331038 6.3958025661 5.9813894649 6.7919988815 4.7755008658 6.8638189949 4.7336590431 
6.3958877958 8.008891814 6.7652819956 -6.0414860489 -4.8406149362 -5.9094398318 -6.1096957661 -6.2405332937 -3.940633544 
5.3471522058 -4.0756718194 -5.3508179733 -4.691048764 -5.6419586557 -5.6973600351 -5.7938624021 -4.8476556557 5.674889888 
-6.1081197928 5.9529956149 6.6723315369 -4.7352957903 -6.2905074329 -6.0587984733 -6.0190371378 7.1184966563 5.8937517847 
5.4461693905 5.3114499424 -5.5012973546 6.4320362698 -5.1602977792 -5.3063265547 -4.2206236608 4.1772073306 -5.0614131151 
3.3022919593 3.2846022621 5.1837760394 3.9299992362 5.0406161371 3.7922254703 4.4805227111 4.6550412076 4.2309720307 
-4.8270682065 -6.0054586337 -7.2278120809 -6.3916304698 -6.6639832191 -6.0694322982 -6.3291260054 -4.3779240493 -6.4972013956 
-6.5135716421 -4.3423596908 -6.0341929776 -6.7365898998 -6.450146472 -6.3636207166 3.4955040747 2.9606910241 -5.7584522643 
-6.722040442 -6.3508594815 -6.5686631871 5.4371684186 -3.8634621703 -4.922971781 -5.911982458 -6.9705848056 5.0878612701 
-5.7967331485 -7.4156704205 -5.7652183811 -7.503643189 -5.4883518342 5.5393490739 7.1932224131 4.5300614504 4.2275779584 
7.0398485115 6.4527195843 5.994075349 6.0690928766 5.7359183348 4.1717850209 5.8568865943 4.3413966249 7.2554027597 
6.5831282204 -4.2385342028 -4.8884413105 5.7094429892 -3.8140836388 -4.0590346615 -4.3805461722 -3.9691126823 -4.0827779377 
-2.9495480968 -4.7209245495 4.2736907776 -7.1479029632 5.4475694499 5.7171859973 5.0716872454 5.0806468209 4.5731239478 
4.9013833346 -6.4164492235 -6.3030066839 -6.6155257188 -6.4729602024 4.7131724311 3.9952572123 5.9130985845 3.646442597 
5.4917180074 -5.7738735491 -6.0334042872 -5.0887378321 -5.0344068896 -6.4649173726 -4.9232112581 -6.4324513508 -4.9218294452 
-4.6740825907 -4.5855821413 -5.5974437853 -5.8735888034 -5.5523510711 -4.3284633295 6.4131550988 6.3277733491 5.4278352694 
6.3849380598 5.911013682 5.2940208015 5.2949658864 5.7803082116 5.3825882204 -4.0680840847 5.8303328995 5.9249834457 
-4.5487345055 5.636537799 5.6601305154 5.3290506548 6.1457001298 5.2296439743 -5.2595919146 -4.7853434697 -4.3338363279 
-4.3340369158 6.154876863 -5.258614561 5.9954993689 6.4973425733 -3.5103942286 -3.8286098765 -3.740682023 -4.1174695718 
-5.3415697904 -4.143527523 -4.4621925297 -5.2934076026 -6.7858519663 -7.0077634203 -4.9132201558 -5.5015909144 -6.5469638864 
-4.1613117449 3.9056269237 6.1247713331 3.7625640629 -4.6036873515 -4.5769250613 -5.1024642333 4.7389636166 5.7428584492 
5.3213737187 5.804330141 5.0836933115 5.0543468402 4.4188979695 -4.901363182 -4.8026359844 -4.8715631828 -5.0674831307 
4.7603459289 -4.2215258442 -4.0821049805 -6.3683752738 -4.1453709587 -3.198593313 -4.0861768936 -4.1175053915 -3.4694952899 
-3.8724250017 -4.4264452261 -4.2258196554 -8.0867615639 5.6794822408 5.08679337 5.6979339016 7.9994137534 6.1119898544 
6.1291504642 5.3510917267 5.3731875165 6.6091521512 8.0219148267 5.9822792828 4.8671136201 -3.9625725544 -5.0190697848 
5.7692881803 -6.2980173734 -4.8439301149 -5.0594977301 -6.1891030389 -6.2477778177 -5.9399067243 -6.8046864781 -4.8131540957 
-4.6149602885 5.4630431377 -6.0108875115 -6.9999734957 -6.3681582208 -6.4605789691 5.6362726542 -5.5822037659 -5.710729739 
5.3804478745 6.4747517375 5.9353117087 6.3835817687 -7.4894907394 -6.1610705621 -7.3026636787 -7.4909596427 -5.1586308455 
-5.4372347541 -4.395286088 7.2116747009 6.1033441649 6.5293316164 5.5399215347 6.8976327752 6.5131501233 6.7850582807 
6.4216928087 5.8726689522 6.0205948573 6.4405251954 -7.4758773527 -7.6248979387 -7.6012336378 8.6561891214 7.5099027934 
7.0335329455 -2.2226343728 -7.2226034875 -6.7718220348 -7.5896641413 -7.8106489188 -7.7214393781 -7.132513788 -4.5411716146 
7.2661986294 7.2602846683 7.3773540816 -6.5543416034 6.489411528 4.5819788616 5.3735623858 -5.1118503861 -5.5116323243 
-5.2618436255 -5.522153119 7.6207529408 6.8906150143 6.597857098 7.0633427445 6.527542129 -5.4788212289 7.1388417645 
-5.9215652214 -5.2318362126 -5.5546171429 -3.3097664879 -5.7106859415 -5.7899470095 -6.2287983294 -5.2518757898 -5.4624122284 
6.7315829016 -7.1613509312 5.651541564 4.3329767847 5.0113913313 7.5822880525 7.5429403984 4.4694627147 4.527294791 
6.5948514971 4.880637035 5.5636563681 5.7402654157 3.7555163099 6.5859827943 5.6828840214 6.065384287 5.1835106717 
5.0443059272 6.5785801057 6.4699264574 7.1375527302 6.8548459417 7.9918530291 7.4424285629 5.5904226988 7.1635789637 
5.2541510086 4.9688642317 6.0399884802 -7.5656422978 -7.2995635143 -6.8127564073 -6.7461802199 -5.6575581677 -6.3300089383 
-4.9694409458 -6.4939465995 -5.3971637844 -5.6729492497 -7.6233958857 -6.2778943751 -6.4132449876 -7.1907508958 -7.0566095043 
-7.134750289 7.0217684414 5.5963421746 -5.5217592914 5.6382582342 5.8172072183 6.586408468 5.449990617 5.443286666 
6.5986514732 6.6212291724 -5.6892780955 -6.4523436823 -5.9838405802 -6.439233771 -6.972527754 -6.1526045433 -6.6680981288 
-6.1731156911 -7.6070091123 4.4563658852 5.1523949521 4.6114393139 -7.7473250758 -6.5487433297 -4.9530581913 -6.7509076651 

