# vtk DataFile Version 5.1
vtk output
ASCII
DATASET POLYDATA
POINTS 194 float
-4.61218 -0.983939 -12.0856 -0.170997 -0.908331 9.71147 3.64713 0.446935 -7.7873 
6.09595 -2.38303 -8.40819 8.82845 -0.000859917 -2.18947 8.94207 -0.517321 0.341321 
7.21946 0.0822731 2.46993 4.59059 -0.596291 4.69862 2.77144 0.714599 8.46191 
-0.777577 -4.92278 1.58634 1.87394 -3.3169 -3.04263 5.01386 -2.1872 1.8843 
-0.977048 5.10094 2.00224 1.70165 3.28688 -2.9402 5.14694 1.87069 1.62819 
-3.26182 -2.72556 -2.68362 -2.86756 2.79869 -3.12974 -5.52477 0.257446 1.86333 
2.85598 -0.646794 4.62825 2.30329 -0.55715 3.27269 0.610262 -3.21925 4.44126 
2.05246 -4.60682 1.20905 0.995124 -0.0894283 -6.04723 0.606196 -4.80642 -0.736289 
-2.59266 -4.47654 -0.721152 -1.17586 -4.20213 -3.74626 1.05409 -0.634357 -5.30629 
0.0682004 -1.88776 -6.47398 -7.21427 -1.08965 -3.76683 0.911614 -0.489181 -5.50965 
4.82181 0.444235 -3.99917 3.93998 -4.31468 -0.865477 4.96332 -0.61206 -0.990983 
0.664392 2.92078 4.59919 1.61879 1.44505 3.02067 2.40921 4.56507 1.75728 
2.85887 0.521875 4.64873 -2.76849 4.56215 -0.663885 0.674755 4.53465 -0.534875 
-0.83373 3.61654 -3.15644 -3.49311 0.274045 -5.96154 -2.01559 1.61858 -6.48501 
-0.0730619 1.61334 -6.01046 0.684295 1.15891 -6.59993 0.946238 0.533083 -6.54072 
4.24627 2.29096 -4.50367 5.04366 0.394294 -0.780464 3.84086 3.54307 -0.728205 
-4.15022 -0.404369 -2.54377 -4.82421 1.69788 -0.546784 -3.6073 3.05003 1.41373 
-5.88181 -1.92572 -0.859643 -3.84711 -3.29821 1.75913 -1.25975 2.54564 4.40283 
-1.65488 -2.48843 4.65346 -3.54557 -0.556638 4.07314 -2.78214 0.780939 4.24727 
2.85012 -1.13813 3.11455 5.52917 -1.34134 2.82671 1.68856 -0.691529 4.82938 
0.577335 -1.35203 6.42963 1.48413 -2.42102 4.46889 2.49359 -2.54246 3.63903 
2.76933 -3.57892 1.85946 4.20754 -3.88881 1.49965 1.22727 -4.25342 2.87453 
0.100938 -4.18061 3.18053 0.611911 -4.97789 1.72282 -0.0523115 -0.036911 4.65029 
1.54192 -0.00601314 5.25278 1.50069 -0.94258 6.82565 -0.154939 -5.49323 0.767297 
-1.70249 -4.96401 0.664259 -0.975249 -4.99833 -0.64583 1.45523 -4.88386 -2.03857 
-0.226503 -4.65428 -2.07551 0.414312 -3.96271 -3.00695 -1.68551 -4.86202 -2.14494 
-3.69719 -4.17116 -2.02383 -2.55415 -5.19411 -3.35211 2.19208 -1.76287 -3.34358 
1.22441 -2.30171 -3.90376 0.742927 -1.35011 -5.36297 0.0710685 -1.25633 -1.76663 
-1.72277 -1.70232 -5.08795 8.25263 1.67064 -9.23041 -1.68224 -1.64725 -5.2922 
-1.96418 -4.15392 -5.65863 0.220689 -3.24511 -4.44022 -0.25556 -0.380919 -4.83989 
2.83067 -0.881087 -3.5008 3.26294 -2.59058 -2.28842 2.3917 -1.09342 -6.5913 
3.71874 -2.5853 -3.54838 2.64604 -3.68584 -1.58754 2.52108 -4.88441 -0.756146 
1.65242 -5.11115 0.504172 3.10165 -4.29498 0.1941 4.78508 -2.9907 0.670599 
6.8129 -2.44343 1.49694 5.74782 -3.38335 0.0130738 2.87177 0.0435761 -1.59213 
4.40905 -2.94049 -2.58072 0.817779 1.48416 6.47991 1.06249 1.04719 5.43868 
1.44931 2.30294 3.89718 -0.0872004 4.30083 3.38441 0.92321 3.60882 2.78404 
0.740712 4.75472 1.87195 2.22733 2.89952 2.23818 3.81596 1.353 2.57579 
3.48242 2.82955 1.27963 3.86963 0.655299 3.56856 4.84059 0.743027 2.41081 
1.78065 0.391023 4.38619 1.54266 0.767692 6.24616 0.309946 0.913659 6.60009 
-1.88528 4.87975 0.552989 -0.132822 5.55969 0.575352 -1.02317 4.59982 -0.619994 
-2.94168 3.63136 -1.79424 -1.70102 4.15837 -1.90522 -1.72134 3.37905 -3.36741 
-0.185382 5.15169 -2.31744 1.48114 4.52975 -1.9737 0.528997 3.42562 -3.18108 
-3.19736 1.61802 -3.83721 -2.37213 2.25132 -5.16936 -3.20636 1.42675 -6.00624 
1.53663 2.57851 -4.64779 1.77562 1.82302 -4.07558 0.307907 0.945994 -5.77838 
-0.859928 1.94006 -6.20058 0.00821268 2.86844 -4.70576 -1.00577 2.86577 -4.53862 
0.67085 -1.57211 -4.80254 3.2017 -1.04513 -5.49221 3.35987 0.169879 -4.12514 
3.20658 1.5799 -3.83412 2.98245 3.84002 -2.60919 5.92334 1.56017 0.781884 
2.62579 3.50466 -1.32046 2.25381 4.54873 -0.203829 3.93629 3.15412 0.573704 
2.69949 3.86032 0.672084 1.73 4.96704 0.676445 5.01175 2.53264 0.528663 
4.28043 2.60627 -1.97536 5.16939 0.198578 -2.84607 -0.788062 0.529811 -6.88802 
-2.58194 0.36116 -3.31641 -3.77762 1.48021 -2.63818 -2.35125 -0.200426 -4.12883 
-3.89166 -1.53412 -4.12069 -3.86927 2.51449 -1.64736 -3.95693 3.15173 -0.539523 
-3.45286 3.53412 0.495532 -2.95442 4.64355 1.97074 -4.6569 2.61902 0.60222 
-5.31835 0.822157 0.527611 -4.91699 1.33022 1.71474 -4.08725 -1.98701 -1.89743 
-4.11004 -3.27746 -0.759281 -5.67671 -1.19756 0.444583 -4.5424 -2.45167 0.494895 
-5.12438 -1.99638 1.8469 -3.28308 -3.94339 0.507512 -2.33322 -4.05442 1.63399 
-5.04577 -0.195115 -0.416429 -4.93145 -1.28526 -1.83309 -4.74357 0.713685 -1.55922 
-1.27969 3.61637 2.97137 -0.613527 3.15909 4.88268 0.0979259 2.05235 6.02243 
-0.512193 1.01656 6.72886 -1.48099 1.50939 5.59235 -1.37987 -4.56082 3.21792 
-0.626811 -3.01551 4.45001 -1.69905 -1.47311 6.24046 -0.859 -2.12247 6.89736 
-0.160476 -2.22104 5.81127 -3.01677 -1.04806 5.25333 -2.54837 -1.99136 3.67891 
-2.26164 -3.27414 2.63526 -3.48858 -2.03769 2.61387 -4.46583 -0.64195 2.8869 
-1.79386 1.08669 5.27042 -2.43656 2.21045 3.97818 -4.40475 0.451229 3.04766 
-3.80111 2.25966 2.67032 -2.10563 2.80826 2.71661 -2.94916 0.120599 5.17699 
-1.65996 0.342749 7.03009 -1.79563 -0.0913681 7.39196 
POLYGONS 385 1152
OFFSETS vtktypeint64
0 3 6 9 12 15 18 21 24 
27 30 33 36 39 42 45 48 51 
54 57 60 63 66 69 72 75 78 
81 84 87 90 93 96 99 102 105 
108 111 114 117 120 123 126 129 132 
135 138 141 144 147 150 153 156 159 
162 165 168 171 174 177 180 183 186 
189 192 195 198 201 204 207 210 213 
216 219 222 225 228 231 234 237 240 
243 246 249 252 255 258 261 264 267 
270 273 276 279 282 285 288 291 294 
297 300 303 306 309 312 315 318 321 
324 327 330 333 336 339 342 345 348 
351 354 357 360 363 366 369 372 375 
378 381 384 387 390 393 396 399 402 
405 408 411 414 417 420 423 426 429 
432 435 438 441 444 447 450 453 456 
459 462 465 468 471 474 477 480 483 
486 489 492 495 498 501 504 507 510 
513 516 519 522 525 528 531 534 537 
540 543 546 549 552 555 558 561 564 
567 570 573 576 579 582 585 588 591 
594 597 600 603 606 609 612 615 618 
621 624 627 630 633 636 639 642 645 
648 651 654 657 660 663 666 669 672 
675 678 681 684 687 690 693 696 699 
702 705 708 711 714 717 720 723 726 
729 732 735 738 741 744 747 750 753 
756 759 762 765 768 771 774 777 780 
783 786 789 792 795 798 801 804 807 
810 813 816 819 822 825 828 831 834 
837 840 843 846 849 852 855 858 861 
864 867 870 873 876 879 882 885 888 
891 894 897 900 903 906 909 912 915 
918 921 924 927 930 933 936 939 942 
945 948 951 954 957 960 963 966 969 
972 975 978 981 984 987 990 993 996 
999 1002 1005 1008 1011 1014 1017 1020 1023 
1026 1029 1032 1035 1038 1041 1044 1047 1050 
1053 1056 1059 1062 1065 1068 1071 1074 1077 
1080 1083 1086 1089 1092 1095 1098 1101 1104 
1107 1110 1113 1116 1119 1122 1125 1128 1131 
1134 1137 1140 1143 1146 1149 1152 
CONNECTIVITY vtktypeint64
57 58 7 8 18 7 18 57 7 
11 58 57 61 19 59 20 61 60 
59 60 61 63 62 19 64 11 62 
21 64 63 62 63 64 66 65 20 
67 21 65 9 67 66 65 66 67 
63 65 21 61 20 65 19 61 63 
65 63 61 57 62 11 68 19 62 
18 68 57 62 57 68 69 59 19 
1 180 60 1 60 59 69 70 1 
1 70 8 70 68 8 59 69 1 
18 8 68 19 68 69 70 69 68 
2 22 0 72 71 9 73 23 71 
24 73 72 71 72 73 75 74 23 
76 10 74 25 76 75 74 75 76 
78 77 24 79 25 77 15 79 78 
77 78 79 75 77 25 73 24 77 
23 73 75 77 75 73 81 80 10 
82 26 80 27 82 81 80 81 82 
26 82 0 0 89 26 0 22 89 
82 27 0 84 83 15 85 28 83 
29 85 84 83 84 85 0 28 85 
0 86 28 29 149 0 27 86 0 
87 83 28 79 15 83 25 79 87 
83 87 79 81 88 27 76 25 88 
10 76 81 88 81 76 87 88 25 
86 27 88 28 86 87 88 87 86 
90 80 26 91 10 80 30 91 90 
80 90 91 92 3 30 3 92 2 
92 89 2 4 93 3 90 92 30 
93 30 3 22 2 89 26 89 90 
92 90 89 94 74 10 95 23 74 
31 95 94 74 94 95 96 71 23 
67 9 71 21 67 96 71 96 67 
98 97 31 64 21 97 11 64 98 
97 98 64 96 97 21 95 31 97 
23 95 96 97 96 95 99 6 11 
6 99 5 99 100 5 7 58 6 
58 11 6 98 99 11 32 5 100 
31 100 98 99 98 100 101 93 4 
5 32 4 32 101 4 30 93 101 
94 102 31 91 30 102 10 91 94 
102 94 91 101 102 30 100 31 102 
32 100 101 102 101 100 1 115 116 
105 33 103 34 105 104 103 104 105 
107 106 33 108 12 106 35 108 107 
106 107 108 110 109 34 111 35 109 
14 111 110 109 110 111 107 109 35 
105 34 109 33 105 107 109 107 105 
7 36 8 113 14 112 6 113 7 
112 36 7 112 7 113 110 112 14 
114 36 112 34 114 110 112 110 114 
36 114 8 104 116 34 8 115 1 
103 173 1 114 34 116 115 8 114 
116 115 114 118 117 12 119 37 117 
38 119 118 117 118 119 121 120 37 
122 16 120 39 122 121 120 121 122 
124 123 38 125 39 123 13 125 124 
123 124 125 121 123 39 119 38 123 
37 119 121 123 121 119 127 126 16 
128 40 126 41 128 127 126 127 128 
0 40 128 41 132 0 0 149 40 
130 129 13 131 42 129 43 131 130 
129 130 131 135 44 0 128 41 0 
132 42 0 133 129 42 125 13 129 
39 125 133 129 133 125 127 134 41 
122 39 134 16 122 127 134 127 122 
133 134 39 132 41 134 42 132 133 
134 133 132 0 44 2 43 135 0 
0 42 131 0 131 43 44 135 2 
137 3 45 130 138 43 2 136 3 
136 45 3 139 45 138 13 139 130 
138 130 139 136 138 45 135 43 138 
136 2 135 138 136 135 46 146 5 
113 6 14 5 140 6 140 14 6 
4 46 5 124 141 13 142 47 141 
38 142 124 141 124 142 144 143 47 
111 14 143 35 111 144 143 144 111 
118 145 38 108 35 145 12 108 118 
145 118 108 144 145 35 142 38 145 
47 142 144 145 144 142 140 143 14 
146 47 143 140 5 146 143 140 146 
147 141 47 139 13 141 45 139 147 
141 147 139 137 45 148 3 137 4 
148 46 4 148 4 137 147 148 45 
146 46 148 47 146 147 148 147 146 
85 29 0 150 126 40 151 16 126 
48 151 150 126 150 151 84 152 29 
153 48 152 15 153 84 152 84 153 
150 152 48 149 29 152 40 149 150 
152 150 149 154 120 16 155 37 120 
49 155 154 120 154 155 156 117 37 
157 12 117 50 157 156 117 156 157 
159 158 49 160 50 158 17 160 159 
158 159 160 156 158 50 155 49 158 
37 155 156 158 156 155 78 161 15 
162 51 161 24 162 78 161 78 162 
164 163 51 165 17 163 52 165 164 
163 164 165 72 166 24 167 52 166 
9 167 72 166 72 167 164 166 52 
162 24 166 51 162 164 166 164 162 
159 163 17 168 51 163 49 168 159 
163 159 168 169 161 51 153 15 161 
48 153 169 161 169 153 154 170 49 
151 48 170 16 151 154 170 154 151 
169 170 48 168 49 170 51 168 169 
170 169 168 171 106 12 172 33 106 
53 172 171 106 171 172 173 103 33 
1 116 104 104 103 1 175 174 53 
1 173 174 172 53 174 33 172 173 
174 173 172 66 176 9 177 54 176 
20 177 66 176 66 177 179 178 54 
179 180 1 1 181 178 1 193 181 
60 180 20 178 179 1 177 20 180 
54 177 179 180 179 177 182 54 178 
55 182 181 178 181 182 183 176 54 
167 9 176 52 167 183 176 183 167 
185 184 55 165 52 184 17 165 185 
184 185 165 183 184 52 182 55 184 
54 182 183 184 183 182 186 192 1 
187 56 186 53 187 175 186 175 187 
189 188 56 160 17 188 50 160 189 
188 189 160 171 190 53 157 50 190 
12 157 171 190 171 157 189 190 50 
187 53 190 56 187 189 190 189 187 
185 188 17 191 56 188 55 191 185 
188 185 191 192 186 56 1 174 175 
175 186 1 181 193 55 191 55 193 
192 193 1 56 191 192 193 192 191 

CELL_DATA 384
SCALARS scalars double
LOOKUP_TABLE default
-9.3413518881 -9.4215868452 -9.5105612402 -7.4805991306 -1.8120170992 -6.0974370161 -2.0374872531 -1.112267125 -4.2514501539 
-5.7256203373 -8.6661935081 -8.1069667853 -8.6573562237 -8.8607520697 -8.6245876171 -6.8382200831 -5.9849317711 -0.84383107741 
-5.6644486305 1.6728894148 -2.0279912436 -9.3298021023 1.829196215 -0.26493143434 -7.2288704974 -6.2710446144 -6.2070899913 
-7.5851602321 -0.35384859457 -0.19412347456 -9.2618223002 9.6769609074 8.4346353032 -9.8283673004 -8.7394878268 -9.2238135705 
-9.44129459 -9.3874050189 -9.9048249472 -5.6798436506 -8.5267930513 -7.6857011637 -9.454879501 -8.22281245 -0.52636450659 
-8.6108449611 -9.3007900667 -9.4916057319 -9.7793779886 -9.7646528588 -2.6827139906 -2.7967719362 -2.1420977628 -5.4221007379 
-2.7552412647 9.7812003638 -9.8028807834 2.6742806979 -8.9806423959 9.5039772791 8.1147940048 -9.512730758 9.8029623376 
-9.9240117102 -3.4119972546 -9.8740247668 -7.3509516461 2.9393323366 -8.1946283293 5.4552666887 -5.411013515 -8.2300654465 
-5.4465851288 -5.6330344046 -8.5218282578 -7.6597467612 1.6726097645 0.77408027656 -5.2521572463 -2.6679804316 -5.4475900328 
-4.4894643795 -8.4565555269 -2.4474760446 -1.5638551044 -8.9718033865 -8.3467128764 2.5577881234 -9.8596977697 9.835418675 
-9.7526606037 -5.0809347892 -9.9863831222 -5.7360536544 -4.6388071759 -9.2566851118 -8.4679943973 -8.4333802598 -9.2176760817 
-7.7578584652 -9.4952026774 -4.4844908585 -7.0323385014 -8.0777547062 -8.7290857483 -9.7789471743 -8.3378494542 -3.7580188027 
-3.5749440145 -7.4385083541 -5.8574035106 -7.055213688 -8.3384154047 -2.4389563332 -7.8068731738 -8.4924633543 -5.7911128114 
-9.7491236484 -7.8314226704 1.9424284875 -7.7664544722 -3.3109990742 -6.4315604009 -3.6759475149 1.7551435836 -7.1118638554 
-2.8984149702 5.1567693092 8.1943710211 5.5022162235 -0.31313046551 -0.12536965576 6.6519096258 8.9870133342 6.2998167466 
5.2433889065 3.9885902343 1.5925142869 6.7051406789 6.3469724366 1.9759807582 -1.8812166148 5.7897791537 6.5491966888 
8.3932033797 2.40671952 8.3159573886 7.2679222771 7.2053444892 8.1723420203 9.9244783277 7.9097069237 8.1538915536 
9.9279234183 -9.7549875212 8.8971365178 7.565882431 5.734176919 9.3834837531 9.7975785343 9.2856944096 9.7005985387 
7.5530279879 8.4073953321 7.4505651742 7.3562136662 8.763998059 8.1655700994 9.3399003398 4.6303250945 6.2260640985 
5.3193183135 5.6764456054 9.4779420841 9.476871462 8.3657586453 4.2793239342 2.4074394627 8.1517357594 7.4046817248 
2.4408005909 9.2143428137 -9.7338445493 1.7933611483 0.79117139906 8.625605115 -1.9124261506 5.2321571358 9.1513819796 
6.7254140709 7.0636744968 9.0084254742 9.1811809264 9.0074690436 8.6775976471 8.7826704363 8.1109838221 8.6177048678 
8.8007047328 8.6291383113 6.4041224306 8.6747855778 9.7692142894 -3.7481814697 2.0082621382 9.087780699 5.6539840548 
-2.0947023847 9.1854835545 5.1471233295 3.9144843815 3.0872820309 6.099320168 4.8143736698 3.9585986883 -3.9004299141 
8.4051717563 5.0578903895 4.9379191413 5.4131820141 7.8186925354 7.8103943688 9.6676689457 5.0034955906 7.4642258543 
9.9994480478 6.0542178547 8.4069809886 7.6380511081 5.4772127867 6.7893338389 7.9847064581 9.5312518777 8.8773912962 
8.890422849 6.4305491422 9.1707836627 7.5759007753 6.5273008953 7.6663647246 8.4162461537 6.3649286072 5.1630678633 
8.1522181905 9.0012675157 6.9744868436 7.583753005 -3.6183987084 8.9094503358 9.9347268047 9.882340785 3.6416165117 
-0.23661892756 6.2355288015 4.1236572196 -9.6724554508 -3.0688690133 4.4044970335 0.46441338093 -5.3324857923 4.0876698882 
6.3301003532 -7.9496942655 3.9678445218 5.9139826581 -8.9766274618 -9.9554932328 2.5673644927 5.5792989379 5.804111927 
4.8276545241 5.6066135642 7.2570419144 9.7427290646 3.6760023136 7.2045561757 3.4712159287 5.7414106249 4.9958349036 
3.3416177593 7.6953027502 4.9349614646 6.456367274 7.9617768521 -0.90737087407 -5.9713478703 -7.3713320071 -1.6086437491 
-5.9345164739 -1.7007508068 -6.9595093028 -6.6999778301 -8.3619489203 -8.7164562393 -7.8183139745 -7.6284737498 -6.4508758877 
-7.8466351782 -7.5239245075 -6.3613330065 1.77239571 4.5595475049 0.84072990178 1.7429606342 -4.7526061857 -6.3154885431 
3.9236980158 -7.4444077996 3.7680088455 1.2385835599 3.7728984552 3.6940353341 1.5808067513 1.0233869288 4.7962699868 
1.1497634247 5.3579673544 7.1535364413 5.0615130647 7.4377535249 7.7922063387 -6.3924845643 -0.59084228617 7.4410964697 
6.6607068419 4.0282859695 7.6965472453 6.3241591767 -9.2360097359 -5.7626828659 -7.6500972463 -6.6690290825 -5.8529807511 
-8.9041280543 -7.793290906 -1.3489296716 -6.9972229856 -5.3658605523 -8.352672729 -8.752428342 -8.3917263796 -5.9248620427 
-5.8794168973 -7.9879394236 -3.8761513554 -8.7327252189 -7.3650300343 -4.0313017589 -5.5218363237 -4.3790726269 -1.3731496153 
-4.3300472893 -4.1748144626 -5.7178475793 -5.1189966264 -5.8248654977 9.2008278087 2.9272763369 7.2487750638 1.7642895497 
3.5059818294 4.6399459233 6.1276369389 3.6584648577 5.716847724 0.041970007908 5.6128232207 1.6117361969 8.3112899298 
8.7492396779 2.8981917414 8.9059077863 -0.61393052256 7.5226868405 -3.2049180462 -0.36131326388 7.2693665337 8.0523477456 
2.9201058271 1.259146032 0.24374500681 6.4036611756 6.7560420676 5.7137548007 
