# vtk DataFile Version 5.1
vtk output
ASCII
DATASET POLYDATA
POINTS 356 float
0.522813 0.445918 0.289544 0.492498 0.560141 9.21291 0.576046 8.89254 0.311589 
0.563724 9.04293 9.13079 9.17186 0.505005 0.196442 9.06378 0.632486 9.34657 
9.2412 8.82155 0.29986 9.17635 8.91049 9.16949 0.00284935 0.265998 1.1293 
-0.076245 0.0875416 2.65698 -0.167222 -0.00126922 4.2322 -0.225446 -0.117642 5.76905 
-0.221077 0.0200097 7.40672 0.0761571 0.369091 8.49708 -0.0510783 1.24108 0.0899967 
-0.0678838 2.68699 -0.243468 -0.455245 4.43775 -0.401725 -0.395552 5.591 -0.158301 
-0.316286 7.43068 -0.13488 0.393352 8.43016 0.0716856 0.180622 9.18724 1.37657 
0.00774617 9.22746 2.75183 -0.0471122 9.20865 4.26581 -0.156712 9.3118 5.70416 
0.0671708 9.17035 7.1229 0.330742 9.27521 8.34619 0.020547 1.20175 9.11219 
0.0634671 2.56706 9.59417 -0.305519 4.36914 9.37741 -0.376042 5.48077 9.41601 
-0.114906 7.42749 9.1902 0.249617 8.51234 9.45986 9.55216 0.04994 0.954492 
9.42643 -0.125521 2.61453 9.26756 -0.0610627 4.20763 9.39005 -0.0936471 5.74865 
9.46693 -0.141144 7.33312 9.40282 0.169651 8.64826 9.40882 1.19469 0.0865777 
9.35334 2.60109 -0.289415 9.43348 4.4627 -0.298493 9.51989 5.61247 -0.29175 
9.69629 7.34977 -0.0835519 9.13864 8.35062 0.104879 9.32154 9.103 1.21474 
9.3659 9.11999 2.58087 9.52046 9.039 4.18449 9.48438 9.21283 5.70199 
9.30804 9.16366 7.27563 9.20611 9.0099 8.51246 9.33529 1.2285 9.21611 
9.40356 2.60643 9.55704 9.55017 4.34901 9.46964 9.2961 5.49759 9.37842 
9.47892 7.34632 9.26652 9.11823 8.36952 9.34146 1.43107 0.483822 0.0475405 
2.77732 -0.159976 -0.024509 4.571 -0.154582 -0.0197801 5.87674 -0.0762278 -0.162942 
7.35733 0.0681762 0.0693453 8.51476 0.127094 -0.080301 1.41932 0.48795 9.26435 
2.84054 -0.189288 9.45398 4.67388 -0.194086 9.54826 5.85165 -0.196612 9.36869 
7.34151 -0.0503259 9.58433 8.38933 0.457023 9.33583 1.21057 9.15949 -0.0932291 
2.58847 9.43875 -0.141578 4.37871 9.3439 -0.32349 5.88053 9.43748 -0.350646 
7.4403 9.35577 -0.297836 8.62453 9.1046 0.0422118 1.27859 9.29134 9.57477 
2.68466 9.54204 9.47678 4.41734 9.50794 9.5829 5.8632 9.41816 9.48577 
7.47936 9.30882 9.56625 8.60163 9.17415 9.46621 -0.538279 0.519784 5.01254 
-1.16064 5.89238 1.55309 -1.13279 5.98443 8.17598 -0.380948 0.705176 8.01278 
-0.428975 0.55648 1.79715 -0.562875 3.24081 9.01237 -0.154853 8.45804 8.7387 
-0.569982 8.58779 6.56117 -0.492243 3.19513 0.46318 -0.623423 8.56528 3.40844 
-0.260077 8.43571 0.577507 -1.08605 5.819 4.94141 -1.2476 2.87781 3.30664 
-1.17358 2.83416 6.67316 -0.150565 0.660076 8.98027 -0.536743 0.51891 6.56901 
-0.747766 0.359229 3.33963 -0.0534511 0.741074 0.532595 -0.952701 4.74621 8.88145 
-0.68325 6.24781 9.05911 -0.742996 7.30632 8.61045 -0.917973 7.31668 7.37397 
-0.448579 8.4467 7.98356 -0.975042 4.62106 0.666799 -0.780871 6.19763 0.348226 
-0.941015 7.23045 2.44463 -0.579566 7.31121 1.1227 -0.396287 8.39336 1.78344 
-0.474356 8.47802 4.95773 -1.03383 7.39231 4.20486 -1.38724 5.89392 3.36218 
-1.10347 7.33315 5.80032 -1.33005 5.8855 6.66805 -1.08798 4.39621 2.39164 
-1.10264 2.86582 1.52882 -0.587619 1.24944 0.983972 -0.769264 1.12559 2.63734 
-0.980094 1.04822 4.20753 -1.13223 4.44088 7.47823 -1.1345 2.99081 8.19816 
-1.07096 1.01203 5.75565 -0.912455 1.09992 7.35155 -0.608663 1.27347 8.7459 
-1.18961 2.83749 4.97441 -1.43545 4.39141 5.79857 -1.39247 4.31597 4.12684 
9.84928 0.524674 4.95382 9.96536 5.89032 1.70628 9.74489 5.87656 7.97034 
9.94138 0.563911 8.1061 9.57764 0.563909 1.74997 9.70051 3.24919 8.9454 
9.63866 8.30234 8.86363 9.81558 8.43494 6.53906 9.7226 3.20526 0.496325 
9.80217 8.40114 3.43222 9.58421 8.30572 0.631561 9.61056 5.77022 5.00712 
9.90183 2.97074 3.38937 9.92142 2.92206 6.57664 9.54128 0.776305 9.14523 
9.78211 0.467624 6.51722 9.79342 0.499926 3.43176 9.35925 0.856757 0.675982 
9.8077 4.80717 8.77162 9.9989 6.08786 8.9181 9.79098 7.23835 8.50574 
9.80302 7.17122 7.27443 9.60481 8.30849 7.953 9.84683 4.71927 0.71291 
9.65879 6.1206 0.627365 9.67885 7.21063 2.61484 9.8603 7.28293 1.09946 
9.77668 8.31965 1.82401 9.56056 8.26951 5.02839 9.98097 7.18377 4.1453 
9.87585 5.74847 3.37227 9.90142 7.18416 5.78393 9.99384 5.79397 6.58505 
9.75529 4.40963 2.55047 9.87896 3.01303 1.69116 9.86806 1.33578 0.878946 
9.77132 1.30197 2.5923 9.67503 1.31577 4.20724 9.86318 4.44225 7.36584 
9.77889 3.02844 8.11155 9.70002 1.26544 5.78732 9.71926 1.24367 7.27715 
9.73864 1.27206 8.69741 9.56766 2.93111 5.02235 9.80118 4.38085 5.80161 
9.78596 4.33879 4.17341 4.10407 -1.01255 1.50432 4.11688 -1.03477 8.24637 
9.00135 -0.818497 4.94726 9.10376 -0.699381 8.26033 8.95785 -0.392159 1.74565 
6.86009 -0.547477 9.0731 1.4618 -0.113987 9.03814 1.34627 -0.547798 6.6582 
6.777 -0.559042 0.61072 1.24794 -0.656354 3.32306 1.47224 -0.0102 0.537515 
4.15898 -1.0607 4.95083 6.89764 -1.19965 3.2502 6.95082 -1.16371 6.70044 
8.90894 0.0129427 9.26955 9.10522 -0.887943 6.5478 9.02413 -0.69559 3.35899 
8.77919 0.132157 0.587393 5.30334 -0.836144 8.84055 3.9918 -0.501071 8.9737 
2.77022 -0.535062 8.71738 2.68774 -0.816453 7.52854 1.3868 -0.369192 8.19581 
5.41433 -0.758874 0.730116 3.99565 -0.471189 0.457783 2.64525 -0.773267 2.4616 
2.71416 -0.628446 1.01607 1.34389 -0.358445 1.66988 1.187 -0.542966 4.97854 
2.64934 -1.09154 4.22649 4.13241 -1.31246 3.26917 2.65838 -1.05382 5.81255 
4.1372 -1.26134 6.65172 5.54736 -0.958325 2.36033 6.95619 -0.953622 1.56858 
8.39977 -0.522265 0.851029 8.28815 -0.708256 2.55191 8.21304 -0.877016 4.11317 
5.56073 -1.01599 7.56438 6.93267 -0.944759 8.35235 8.25174 -0.842998 5.82817 
8.36211 -0.627 7.4019 8.28741 -0.370723 8.8322 7.15152 -0.866154 4.98252 
5.63523 -1.29254 5.81851 5.62105 -1.25248 4.18475 4.14967 9.74003 1.80719 
4.07175 9.9909 7.99236 9.14954 9.38575 5.03597 9.23952 9.65931 7.9955 
9.06039 9.5876 1.82475 6.78677 9.80967 8.94975 1.37339 9.30524 8.8164 
1.25896 9.63674 6.54621 6.83969 9.50415 0.598839 1.23674 9.62877 3.45137 
1.27109 9.51684 0.698888 4.19184 9.75923 4.99358 7.11138 9.95613 3.36414 
7.09617 9.86021 6.56628 8.99999 9.29169 8.97931 9.14698 9.46277 6.482 
9.29693 9.70006 3.48082 9.21086 9.49388 0.475073 5.29161 9.75136 8.67472 
3.91813 9.60154 8.84513 2.66327 9.79877 8.5711 2.73383 9.76757 7.31798 
1.33217 9.68287 7.90072 5.44362 9.81919 0.806945 3.91394 9.9863 0.588194 
2.69811 9.81293 2.54692 2.60664 9.76158 1.08755 1.34366 9.49176 1.87808 
1.24796 9.5588 5.01729 2.73108 9.7624 4.21417 4.19242 9.98896 3.38261 
2.69206 9.91602 5.79933 4.1982 9.8233 6.57255 5.5297 9.79922 2.52872 
7.00313 9.85711 1.81849 8.42215 9.68807 0.947554 8.52257 9.67909 2.63162 
8.65449 9.63947 4.23439 5.59454 9.82912 7.36983 7.02244 9.70523 7.9859 
8.77701 9.80233 5.74041 8.66588 9.6269 7.28643 8.45582 9.56821 8.59842 
7.0789 9.74749 4.97311 5.64531 10.0535 5.78874 5.60908 9.78618 4.22935 
1.58826 4.04886 -1.17217 8.16781 4.05549 -1.08972 5.02807 9.04268 -0.692285 
8.09395 9.03576 -0.577596 1.77537 9.08388 -0.821883 8.9705 6.74951 -0.526891 
8.86356 1.48074 -0.195228 6.62651 1.27266 -0.76508 0.446104 6.79123 -0.563086 
3.48134 1.19587 -0.634988 0.659042 1.38802 -0.241513 4.97188 4.14266 -0.980549 
3.32177 7.12898 -1.25723 6.67679 7.05335 -1.18767 9.2681 8.88004 -0.34398 
6.68024 8.99014 -0.579004 3.48772 9.09251 -0.858791 0.584825 8.90077 -0.319714 
8.81715 5.24122 -0.913807 9.0167 3.86491 -0.580949 8.63565 2.70958 -0.784271 
7.35649 2.66709 -0.792871 8.00506 1.33014 -0.615176 0.72736 5.3225 -0.953555 
0.372664 3.86857 -0.643687 2.51745 2.58501 -0.928759 0.95731 2.61453 -0.836347 
1.80347 1.31917 -0.691429 5.05246 1.23647 -0.53486 4.19961 2.68578 -1.09823 
3.31984 4.15423 -1.2717 5.7755 2.64254 -1.14806 6.61795 4.16808 -1.30825 
2.39055 5.58432 -1.05421 1.5219 6.99679 -1.10053 0.922726 8.33697 -0.610645 
2.60379 8.36378 -0.722061 4.24878 8.50316 -0.885486 7.43316 5.52437 -0.970194 
8.15291 6.93421 -1.03698 5.8041 8.55847 -1.0445 7.3541 8.46038 -0.787237 
8.82215 8.35102 -0.611506 5.02608 7.12376 -0.985989 5.80608 5.60912 -1.24786 
4.1812 5.63801 -1.24725 1.71552 4.08106 9.80966 8.05037 4.07862 9.80817 
5.10351 9.08434 9.93471 8.01506 8.82503 9.6747 1.87936 8.85941 9.66832 
9.01978 6.69329 9.9445 8.92017 1.53263 9.80657 6.63853 1.25301 9.83915 
0.326087 6.74572 9.87108 3.40042 1.32171 9.59768 0.728061 1.37302 9.62164 
4.9784 4.21098 9.90562 3.37512 7.00819 9.97649 6.60693 6.9928 9.8922 
9.05105 8.74739 9.58901 6.66488 9.00932 9.85541 3.51305 8.96441 9.66872 
0.841843 8.71517 9.29945 8.75789 5.11141 9.84024 9.00249 3.94613 9.70749 
8.48999 2.72104 9.82133 7.27682 2.73075 10.007 7.88682 1.34996 9.80286 
0.829334 5.17704 9.71092 0.474797 3.81 9.82227 2.57322 2.68907 9.92456 
1.13308 2.69889 9.58839 1.90962 1.31114 9.7449 5.03281 1.11199 9.81812 
4.24891 2.71744 9.77467 3.36921 4.20248 9.66936 5.71564 2.77271 9.75945 
6.56467 4.16046 9.80244 2.47272 5.55664 10.0223 1.6626 6.89675 9.81775 
0.990914 8.30865 9.8884 2.66891 8.4905 9.99191 4.30672 8.41048 9.83379 
7.36553 5.56697 10.0223 8.06444 6.88379 9.71222 5.84086 8.40445 9.84306 
7.35835 8.44968 9.99913 8.68643 8.28022 9.80943 5.03527 7.04295 10.0509 
5.74136 5.5708 9.73949 4.18135 5.57818 9.73318 
POLYGONS 709 2124
OFFSETS vtktypeint64
0 3 6 9 12 15 18 21 24 
27 30 33 36 39 42 45 48 51 
54 57 60 63 66 69 72 75 78 
81 84 87 90 93 96 99 102 105 
108 111 114 117 120 123 126 129 132 
135 138 141 144 147 150 153 156 159 
162 165 168 171 174 177 180 183 186 
189 192 195 198 201 204 207 210 213 
216 219 222 225 228 231 234 237 240 
243 246 249 252 255 258 261 264 267 
270 273 276 279 282 285 288 291 294 
297 300 303 306 309 312 315 318 321 
324 327 330 333 336 339 342 345 348 
351 354 357 360 363 366 369 372 375 
378 381 384 387 390 393 396 399 402 
405 408 411 414 417 420 423 426 429 
432 435 438 441 444 447 450 453 456 
459 462 465 468 471 474 477 480 483 
486 489 492 495 498 501 504 507 510 
513 516 519 522 525 528 531 534 537 
540 543 546 549 552 555 558 561 564 
567 570 573 576 579 582 585 588 591 
594 597 600 603 606 609 612 615 618 
621 624 627 630 633 636 639 642 645 
648 651 654 657 660 663 666 669 672 
[...]
CELL_DATA 708
SCALARS scalars double
LOOKUP_TABLE default
-6.2735739825 -8.7485094016 -5.3932117854 -4.8184029374 -5.915156246 -5.0600176287 -5.1175776509 -5.8725637242 -8.9515294407 
-5.5432237601 -7.2784279528 -5.204701161 -6.7691996269 -2.7270139359 1.1105592576 0.43841820494 -0.62478934795 -0.99883619282 
1.6805246476 -0.66873715424 2.3811483176 4.0068271895 3.2873627653 3.1684852099 6.2719871915 6.7263666827 6.5671416115 
6.0117246802 5.8725893656 1.7320090036 1.2711648846 2.7174290504 2.5238487874 -2.3245574681 -0.8239075353 0.599387651 
-2.4490340652 1.410980653 -0.19853887692 3.0701714692 3.3968789878 2.2605117588 2.9981290287 6.8038180666 5.6139392502 
7.4265126024 5.4247984487 5.8448756489 1.8478916596 3.1464680381 2.8848275266 0.41303182081 5.4626169896 5.1215494383 
4.1850681825 6.4075653835 2.8266825403 5.775133113 4.3059590763 2.3870065978 1.2198967685 2.6886085882 3.2945054654 
0.6930325193 2.2354131792 2.2133923294 0.12968175641 4.3222811449 3.9395639228 4.6949587514 -0.9132333711 -2.0206108056 
0.55494059999 0.43197106678 -1.2740218621 -5.5299031461 -5.2376567172 -2.1052881483 -4.0938644676 -4.8505234328 -6.1154515775 
-1.5478089799 -3.6221097307 -2.3493526735 -0.96704396755 -2.6278321094 -0.63774049774 0.13589948424 -1.5159443283 0.58255013129 
-1.0812356129 -5.9008618581 -4.9305451716 -6.4054814415 -0.76423517176 -6.014193512 -6.1196101061 -1.143813656 -0.49548831296 
-0.60553677838 -1.3379646863 -2.1585100203 -6.9122252772 -0.60895897007 -1.2948139722 -0.90487179787 -0.64486449044 -0.60653556967 
1.5279800248 -0.34529263474 -0.0062501965938 0.95727230888 -1.1698283954 -0.82007162613 2.1776403335 -1.1803039475 -1.6090904729 
-1.4649063019 -2.6127664055 -6.2403037163 -1.6406943989 -5.1813965645 -2.1741116668 -6.539350793 -6.8643882064 -2.591848317 
-6.0037765626 -2.3507253571 -1.4164295381 -1.7291918884 0.75552633929 -1.8563286463 -1.1754523987 -1.8099792399 -0.58106308732 
-0.28152541046 -0.038632941608 2.2628374048 -0.38478419861 1.5336552821 0.79793241748 1.7153059352 1.5518915882 4.4103816315 
4.1261400018 5.6105506517 5.1104132859 1.8667248641 0.75179538352 0.050381623007 2.8108133172 -0.41381002147 -0.14429942916 
1.1386336618 -0.22704620027 -0.67725811708 1.1729745807 1.282346641 -0.95593530494 1.890268592 -0.029032382058 4.6332176552 
4.0674744072 4.425619354 4.8192722484 4.8479829355 2.0581272982 -0.51086937722 -1.1253318401 -0.88540570329 0.97762259941 
4.8488121922 2.0966952554 4.890406264 0.30963922311 2.3003738431 0.69292226826 1.6727808855 -1.5765551588 0.32135790058 
0.28551018631 -0.70648949564 0.49269859548 1.0424194426 -2.2612523521 1.7662791241 2.3697427388 3.2814494738 -1.2450362458 
-0.6119205179 0.94940600534 0.52298493378 -0.95758723161 -3.3921752728 -2.3038426724 -1.0632136002 -6.3113948684 -2.3126463406 
-2.5142015373 0.88649502655 -3.0413990666 -0.7074453344 0.52303481034 -0.33447164243 0.73705417906 -0.10220903036 -0.56220045858 
-0.34068941091 -1.2559325464 -2.015664755 -1.8030154239 0.91913341117 -0.33543444328 -2.9394347238 2.8970993395 0.28713069161 
2.4844366874 0.077217980604 -0.78770164437 -0.2727418295 2.0710195337 -0.24492836983 -0.35591173819 0.73072644137 0.59948236689 
0.067948399768 -0.016334734495 -1.1604176979 0.92785455467 0.27870189234 -1.1601778907 -0.76160577503 1.2884521208 -0.3147403959 
-0.3762883606 -1.5630646932 -4.8130809062 -2.65848358 -7.5279671808 -3.8668736592 -7.4383922554 -3.9997787369 -3.7521639142 
-7.4177083076 -4.768994919 -8.9040761373 -8.2959509634 -5.0922485409 -8.0555937492 -7.9793072131 -5.0829729602 -8.0927868925 
-7.9279904096 -7.0005376586 -6.3850315497 -8.675633568 -6.8651378616 -9.3459234956 -9.2687176024 -9.5611569108 -9.4940713363 
-9.5035203719 -8.4182827773 -7.6414938167 -8.5946257004 -3.5463221688 -8.1031696335 -8.8400794913 -9.0091359086 -3.5557225822 
-7.3102661205 -7.0954005424 -8.8821668469 -8.0922935885 -7.8931876911 -8.0407074517 -9.6732898592 -9.6330437455 -8.9310654629 
-9.6433118658 -8.8521744956 -9.0332619426 -7.0210642357 -8.6791996704 -9.1779689855 -8.9360328475 -8.7012134589 -8.8847180554 
-9.0814984353 -8.3565701944 -6.7275201074 -9.6081091345 -9.488522529 -9.6663901663 -9.1791028318 -9.4026888122 -9.5270298129 
-9.8756480734 -9.5237658206 -9.5063512324 -9.9041651586 -9.6719518 -9.6717841 -9.9967768385 -9.3890659031 -9.4358670058 
-9.4005660466 -9.8496399046 -9.1336514269 -9.8594873124 -9.9128603736 -8.1796450032 -8.7956027677 -9.5231016824 -5.6602011582 
-8.1241000938 -6.7044083642 -9.8676389156 -9.3502529949 -9.5356280015 -9.1646053808 -9.656258303 -9.8393990069 -9.9108206376 
-8.6857318029 -9.9059113322 -9.4588943491 -7.1228361523 -8.5620087229 -9.7382842785 -7.8882739459 -8.8279365919 -9.4930319415 
-1.2763795082 -4.6978863666 -8.5203319926 -9.4648407949 -9.2680785812 -9.9834333847 -9.7843631466 -9.7714192163 -9.9978855615 
-9.8770701783 -9.8677838497 -9.892945001 -9.8495632543 -9.8505326886 -9.8753868735 -9.7629159904 -9.766708686 -9.896158234 
-9.7337119853 -9.7041404762 -9.6597190234 5.3246835953 4.619167246 7.9588015308 6.6998543317 7.6592829682 8.1254923473 
0.15653549778 7.0053321715 2.4076465824 7.9445758849 5.07202633 8.2469878056 2.4269916278 0.73300038589 9.0992573872 
9.1187641984 9.7978490197 7.8828403311 8.8703063485 9.9298118184 9.4065189289 9.883820912 8.8650991023 9.9690040036 
9.9696754806 9.2923747728 9.2645794912 9.2895029975 9.0299957623 9.8441941683 9.0508861904 9.159737577 9.5859563728 
9.4853941932 9.9040518072 9.7599929625 9.7990153912 9.5253544136 9.402045315 8.4390375641 9.9882267606 9.781172945 
9.8137958615 9.7503521659 9.5051257459 9.6270670879 7.8663475669 7.8189693022 9.7157743492 9.6128552208 9.623992342 
9.7322543254 9.365126247 8.134918179 8.9937922913 9.7941320714 9.431856452 9.9391640073 9.5751112098 9.7321199096 
9.8743896446 9.8734959403 9.9031539283 9.8510519162 9.9578204405 9.8688724243 9.9522134853 9.9406978052 9.7538455474 
9.927014509 9.7714930575 9.9863993169 9.4062580777 9.9596193299 9.9937151395 8.2929725064 7.3961027631 9.8043969657 
8.1943907292 7.5614433855 8.2091783653 9.9779504752 9.8688843147 9.8514051877 9.6112464081 9.93099787 9.8557513188 
9.9313756335 9.9353259401 9.9586001567 9.8860379241 7.669844083 7.2722539155 8.4858329871 8.6340869819 7.9321799013 
9.9523589081 5.6250484075 9.0494460161 9.8897167665 9.8903267536 9.9588465089 7.7686734462 9.9750646383 9.8315560906 
9.9390881993 9.883047537 9.9193891019 9.8331790131 9.8706666619 9.9436477908 9.8836007837 9.867979199 9.8999382888 
9.8028625383 9.9105880915 9.8299413477 9.7898758957 6.219999745 9.1942884455 4.6997370721 5.3219467158 6.1778422089 
7.2129768034 8.9257377826 4.8373577192 9.0252912664 4.2603619086 9.462305542 5.0382944071 3.7108319574 9.2325117883 
5.0542774511 -1.3820105526 -0.90276780605 0.55018344001 1.366446121 -0.29302054781 -0.46471420689 -2.167488313 -3.125768432 
-0.7784532787 -1.2655947914 -5.1819343693 -4.3725244272 -1.9500058456 -1.9175062929 -2.291122641 -0.17352671756 -2.9197874976 
-0.40436036959 -2.588098454 0.31454193543 1.0200019521 -1.019443543 1.123787065 2.0101343971 -1.129667777 -2.0171813169 
-1.94425783 -3.339573121 -1.5042698417 -4.1212783585 -5.351895148 -4.3354098894 -4.5661740344 -5.5106323037 -4.1076785028 
-2.7852223291 -0.42145699121 -1.0289174202 -1.663751469 -2.1230648038 -3.440049288 -4.8321577685 -2.5993889128 -3.6721770157 
-3.2023518438 -1.914194273 -0.12405547076 -1.6913418708 -1.3401262375 0.048814803405 -2.7150695269 -2.1975052194 0.95658568531 
-3.4021421705 -3.2617400449 -3.8222127001 1.1699163435 1.4350726095 -0.82058848054 -0.63621234424 5.5450414102 5.6041532529 
3.3456975901 -1.6906693605 4.1582247983 5.6572246937 -0.74283606265 -2.0606201231 3.4265986419 1.1522606613 3.1566353893 
1.1240177753 -0.9470210223 1.5516233034 -0.61584342125 1.9192114891 6.0908188648 4.8517470851 5.4106246615 0.029759164088 
5.9631927362 1.8697752321 -2.2090177196 -4.9288747691 0.042955535931 2.1953455668 2.2719011146 4.6779713432 0.24712617255 
1.5874862428 0.1486962535 -0.58431247348 1.5396014207 -0.68160168118 1.38668139 -0.67141403579 -0.83896034171 1.0948062444 
0.79723276258 -1.7738526037 0.83834262929 1.1098427423 1.7170482373 3.6538478131 7.0810409617 4.2620465889 6.8091135378 
2.9931399686 7.1929582267 3.4623699034 2.2684952057 2.4358268426 4.3624911599 2.4358528954 3.8229775052 4.9863577406 
-0.081615761589 1.9711624179 -0.93665250645 -0.17980096644 -0.52231088952 -1.6242093702 0.13366417188 1.8772240368 0.58621086882 
-0.12893324818 -1.2933833499 -0.79355085768 -1.6993571708 -2.7467027396 -4.4002958034 -4.2978209399 -1.9291646142 0.45673359994 
0.92185737705 -0.2566115295 -2.0298766698 1.7460431442 2.7280981395 0.83255946586 -1.8522058988 -0.49386485053 1.7480802223 
-0.59825077771 -1.7492421785 0.55678084786 -0.17431557006 -0.75653427114 -4.4834718702 -2.5708503745 -4.2829172593 -3.503504714 
-1.3026994514 0.24336493979 -1.7793327846 -1.8959765067 0.036210874539 -2.7005451876 -3.1618151562 -2.4981382251 -1.7933701332 
-1.5969425006 -2.3847357789 1.2756710909 -0.15835317682 1.2130350368 -0.43982591258 -0.69116709956 1.4364161958 0.64052966505 
-0.94055666884 0.42193964038 -0.41037575405 0.31533895813 -0.5230897269 -0.85749077181 0.92132704603 0.32791302462 -0.42766775985 
2.8802193982 0.36240074506 8.032608531 4.3667321756 2.4167700977 4.2228531848 5.1449970977 -0.52643102435 -0.29429489862 
-0.75169397348 -0.97576830816 1.5984964808 -0.24098563932 1.3798800761 -0.20560401572 3.2653569172 4.1854709817 1.2311029559 
2.0604165057 3.6456248443 4.4136598774 -0.13665167507 -2.7757941696 0.34554875296 -1.3003586708 -1.2410171452 -1.4054028302 
0.90310442487 1.320643966 1.539812372 -0.013920382052 -1.4774931945 0.83686562614 -0.56137340589 -0.72954902125 0.39949259936 
-1.9051334604 -1.4377694483 1.2316632994 -1.8946858193 -1.6267572847 -2.0920032928 
