# vtk DataFile Version 5.1
vtk output
ASCII
DATASET POLYDATA
POINTS 356 float
0.572788 0.606609 0.350748 0.574208 0.700448 9.02488 0.652059 8.72748 0.373957 
0.743392 8.81707 8.97576 9.07764 0.650644 0.274114 8.98372 0.738278 9.14234 
9.17048 8.75694 0.424154 9.03823 8.81086 9.00965 0.176421 0.30854 1.28965 
-0.0305118 0.103732 2.54734 -0.166409 -0.0901409 4.20359 -0.300045 -0.197514 5.80708 
-0.191494 -0.00610204 7.37619 0.0426848 0.285508 8.44591 0.142973 1.33574 0.280478 
-0.0870827 2.53957 -0.367814 -0.326817 4.22845 -0.233852 -0.391452 5.6518 -0.343144 
-0.287424 7.43253 -0.119207 0.447416 8.32 -0.0278432 0.276855 8.99441 1.3508 
0.172428 8.9605 2.77611 -0.046955 9.05426 4.25735 -0.0670703 9.1818 5.72459 
0.201286 8.96455 7.06754 0.43299 9.03755 8.19612 0.0803693 1.2046 9.29797 
0.142937 2.60877 9.4358 -0.272503 4.24727 9.32343 -0.415755 5.66131 9.32644 
-0.0701943 7.36728 9.16414 0.467055 8.31366 9.28821 9.4803 0.139348 1.01828 
9.38708 -0.0978723 2.50601 9.26383 -0.082218 4.18826 9.30282 -0.114722 5.76954 
9.35686 -0.00845864 7.35313 9.26846 0.196067 8.57317 9.34655 1.26983 0.27245 
9.28154 2.60653 -0.287796 9.46129 4.36605 -0.160732 9.38656 5.62446 -0.20123 
9.49434 7.33239 0.00962006 8.9884 8.16111 0.159804 9.26595 9.12972 1.199 
9.26807 9.12502 2.60788 9.46183 9.17927 4.19625 9.40382 9.05062 5.735 
9.21885 9.01198 7.26428 9.17923 8.99411 8.39945 9.17056 1.31429 9.04131 
9.40889 2.60422 9.55134 9.56579 4.30709 9.43757 9.36176 5.61276 9.47352 
9.31864 7.22087 9.30365 9.09597 8.22542 9.16055 1.49809 0.565716 0.104721 
2.7278 -0.0784748 0.0035339 4.5362 -0.173599 -0.131595 5.89864 0.037026 -0.0625678 
7.28136 0.131137 -0.104673 8.36303 0.378692 0.0601606 1.41699 0.528323 9.39577 
2.77766 0.0424219 9.22851 4.62666 -0.176953 9.20962 5.87457 -0.0979468 9.40155 
7.26273 0.213095 9.47081 8.29402 0.515866 9.23095 1.16699 8.98843 -0.224969 
2.55857 9.31879 -0.125753 4.39282 9.32286 -0.226007 5.95381 9.35499 -0.292728 
7.36598 9.22783 -0.254724 8.46822 9.06292 0.0412962 1.27496 8.9296 9.47878 
2.56723 9.38302 9.42945 4.4337 9.50022 9.57502 5.91634 9.17292 9.39404 
7.38594 9.12013 9.40305 8.49435 8.83738 9.21441 -0.692116 0.426383 4.92452 
-1.2439 5.99394 1.59378 -1.02973 6.08406 8.04885 -0.317666 0.806624 7.89169 
-0.608737 0.569201 1.75276 -0.933246 3.15242 9.00188 -0.0364183 8.31612 8.7319 
-0.540784 8.48681 6.52349 -0.667871 3.1603 0.507786 -0.717851 8.45684 3.41442 
0.0170628 8.32201 0.737058 -1.4752 5.86269 4.97603 -1.47952 2.80743 3.20412 
-1.42721 2.80833 6.60131 0.153261 0.927583 8.76745 -0.527767 0.514467 6.65615 
-0.916486 0.249172 3.35139 -0.11114 0.671465 0.520348 -0.930464 4.76398 8.80005 
-0.773743 6.20895 8.77583 -0.674987 7.37148 8.46725 -0.97227 7.39287 7.3155 
-0.411909 8.4047 7.86956 -1.14764 4.77072 0.607318 -0.689495 6.20146 0.565218 
-0.959271 7.2857 2.56019 -0.784395 7.36629 1.08749 -0.474193 8.37831 1.81887 
-0.605377 8.48913 4.95494 -1.19079 7.32852 4.19097 -1.54566 5.90481 3.23658 
-1.19505 7.33963 5.79465 -1.4101 5.95786 6.72654 -1.26744 4.38954 2.42818 
-1.21752 2.93203 1.59729 -0.571789 1.38018 0.91841 -0.85283 1.21696 2.56942 
-1.09863 1.04562 4.19473 -1.43634 4.44033 7.4315 -1.04182 3.00727 7.9386 
-1.23233 0.9601 5.76213 -1.1073 1.12694 7.34201 -0.488163 1.32292 8.65809 
-1.56726 2.85674 4.96488 -1.51758 4.42042 5.82126 -1.64955 4.37313 4.12588 
9.49672 0.532878 4.99337 10.0181 5.90853 1.72305 9.95733 5.86901 7.83346 
9.73415 0.606589 8.07463 9.59709 0.667475 1.76025 9.68511 3.17792 8.72225 
9.26807 8.13898 8.70574 9.7913 8.3054 6.49835 9.70495 3.15726 0.585996 
9.83747 8.21256 3.41401 9.29995 8.11326 0.695256 9.75535 5.78365 4.97864 
9.987 3.00394 3.30122 9.94278 2.9719 6.65796 9.53857 0.820418 9.05542 
9.82118 0.466378 6.43053 9.63328 0.479833 3.39745 9.24894 0.858249 0.71742 
9.73047 4.77427 8.71915 9.718 6.0885 8.80562 9.67381 7.14395 8.39226 
9.73192 7.13847 7.26496 9.61023 8.2443 7.86881 9.93052 4.70941 0.798842 
9.71693 6.1325 0.489188 9.72309 7.1955 2.60057 9.83931 7.22428 1.19373 
9.69313 8.29999 1.80938 9.70348 8.2747 5.01012 9.95343 7.08758 4.13651 
10.089 5.80795 3.35562 9.82303 7.16118 5.77954 10.0064 5.85462 6.43011 
9.8326 4.42851 2.50245 9.87097 3.0685 1.77914 9.84863 1.42021 0.971596 
9.91633 1.21814 2.58498 9.96449 1.27762 4.13932 9.84489 4.58211 7.39146 
9.98998 3.04127 7.86733 9.99539 1.26795 5.81073 9.69986 1.16624 7.26103 
9.63158 1.34069 8.62273 9.72613 2.76152 5.02049 10.0262 4.37496 5.80949 
9.89348 4.34901 4.14678 4.0437 -1.14445 1.5332 4.13583 -0.86978 8.24633 
9.09027 -0.901596 4.90902 8.98796 -0.585675 8.16572 8.84261 -0.253848 1.73843 
6.83126 -0.529692 8.93134 1.48333 0.00517772 8.69941 1.28363 -0.731221 6.62437 
6.75701 -0.594255 0.526675 1.20785 -0.65786 3.31471 1.37577 -0.151859 0.562532 
4.13131 -1.53655 4.97671 6.91309 -1.22705 3.16998 6.93586 -1.3821 6.75197 
8.78324 0.205327 9.10191 9.06556 -0.824924 6.56633 9.02753 -0.745631 3.34208 
8.73978 0.235788 0.614351 5.35037 -0.840686 8.74378 3.92922 -0.597776 8.88477 
2.7066 -0.745284 8.51051 2.65177 -0.967566 7.49651 1.34302 -0.376641 8.02519 
5.38745 -0.696504 0.724443 3.98397 -0.58794 0.528194 2.55184 -1.13094 2.42863 
2.7325 -0.52658 1.04351 1.36541 -0.448802 1.65933 1.13096 -0.886194 5.04518 
2.64571 -1.23211 4.13475 4.06745 -1.21421 3.19013 2.70242 -1.17237 5.79963 
4.10088 -1.47521 6.70147 5.51541 -1.34001 2.33816 6.88697 -1.03695 1.529 
8.26456 -0.46353 0.85041 8.28301 -0.877384 2.4547 8.165 -1.10807 4.11623 
5.50415 -1.30393 7.55331 6.89336 -0.947906 8.26991 8.20492 -0.959041 5.84834 
8.27895 -0.760333 7.41244 8.27047 -0.272168 8.78529 7.04648 -1.44514 4.93889 
5.63838 -1.35381 5.86536 5.55899 -1.58717 4.10586 4.08183 9.84414 1.8048 
3.99448 10.12 7.93238 9.06302 9.37767 4.94835 8.99041 9.61433 7.92007 
8.84209 9.3797 1.82803 6.83447 9.54442 8.9543 1.29856 9.33721 8.71461 
1.2433 9.59092 6.52249 6.8669 9.7558 0.584983 1.15129 9.66787 3.42669 
1.31464 9.33226 0.771151 4.15559 9.96538 4.96701 7.11442 9.89597 3.30625 
7.09142 9.87032 6.50651 8.84319 9.16175 8.87194 9.13771 9.62818 6.50904 
9.03142 9.4843 3.43486 8.79025 9.03013 0.539514 5.2727 9.93121 8.6019 
3.85574 9.4544 8.74203 2.63948 9.78512 8.42286 2.67834 9.77368 7.16009 
1.28865 9.57629 7.75917 5.32041 9.8801 0.849215 3.79667 9.9117 0.576834 
2.64339 9.83902 2.65333 2.61021 9.71839 1.15884 1.20983 9.45815 1.87062 
1.22816 9.48435 5.00497 2.6695 9.85431 4.21876 4.15046 10.1306 3.31396 
2.60213 9.93328 5.74932 4.1419 9.94697 6.5532 5.52199 9.95784 2.59914 
6.98591 9.85045 1.81854 8.37462 9.61459 0.974346 8.41432 9.77502 2.63241 
8.53683 9.72516 4.25773 5.52496 10.0026 7.21658 6.98066 9.99998 7.95368 
8.61002 9.68716 5.7097 8.42917 9.59569 7.19552 8.32146 9.5088 8.56047 
7.05589 9.90858 4.98849 5.61442 10.1049 5.7761 5.62802 9.99778 4.26661 
1.60199 3.96395 -1.27555 7.99719 3.98849 -1.18509 5.09011 9.09215 -0.909857 
8.17398 8.92247 -0.710863 2.06439 8.6531 -0.3704 8.95058 6.72043 -0.480792 
8.74678 1.47676 -0.132876 6.64411 1.19996 -0.847649 0.535928 6.72793 -0.596581 
3.46002 1.24426 -0.728516 0.788526 1.40105 -0.317729 4.95421 4.16912 -1.47031 
3.22867 7.06114 -1.30559 6.72255 7.01175 -1.31987 9.12552 8.74566 -0.189844 
6.63057 8.97674 -0.907223 3.35405 9.05963 -0.852632 0.818856 8.59714 -0.0401946 
8.77512 5.20048 -0.975969 8.82623 3.83312 -0.642648 8.51161 2.6594 -0.853113 
7.27589 2.55896 -0.884559 7.85706 1.34389 -0.556078 0.632172 5.28328 -1.00531 
0.458506 3.78097 -0.934381 2.50466 2.47959 -1.15965 1.16382 2.64669 -0.719454 
1.83284 1.30932 -0.603509 5.08912 1.07673 -0.774014 4.25119 2.59337 -1.38026 
3.25767 4.06293 -1.38776 5.77793 2.65039 -1.25662 6.70462 4.05933 -1.45323 
2.32787 5.55152 -1.45295 1.60318 6.97252 -1.05039 1.02228 8.23987 -0.709003 
2.58183 8.34741 -0.905106 4.2662 8.37858 -0.961341 7.38464 5.57374 -1.15351 
8.20916 6.90179 -1.04264 5.85476 8.33248 -0.993553 7.31652 8.30417 -0.774439 
8.68125 8.19073 -0.487968 5.07277 7.19877 -1.4534 5.85164 5.54032 -1.51533 
4.12987 5.65761 -1.66196 1.74874 4.00375 9.70861 7.86463 4.08883 10.0778 
5.10466 8.97402 9.7914 7.97775 8.87136 9.9691 1.93932 8.68882 9.48616 
8.75686 6.74079 9.82416 8.76019 1.50724 9.65452 6.57145 1.2641 9.68691 
0.523116 6.66814 9.65012 3.48637 1.21594 9.83322 0.937015 1.48759 9.43789 
4.96826 4.15008 10.1357 3.33987 6.94724 10.0964 6.67528 6.97181 9.91209 
9.02479 8.53328 9.42307 6.62588 8.94253 9.98154 3.58384 8.80382 9.6139 
0.90182 8.60527 9.29763 8.80285 5.11515 9.79647 8.74886 3.83307 9.72952 
8.38719 2.7155 9.81328 7.24011 2.65618 10.0496 7.83414 1.32611 9.8119 
0.771072 5.14478 9.77765 0.628337 3.78706 9.91305 2.57317 2.56452 9.98558 
1.17947 2.674 9.85663 1.98826 1.37057 9.49826 5.0578 1.12078 9.73872 
4.2093 2.68901 9.76325 3.36811 4.14666 10.0994 5.73851 2.68873 10.0345 
6.52185 4.13396 9.92549 2.45145 5.48413 10.1104 1.64156 6.83392 9.78943 
1.16343 8.24196 9.69744 2.61297 8.29465 10.0503 4.22778 8.33685 9.98829 
7.36288 5.45697 10.0885 7.95471 6.82864 10.0017 5.87394 8.30741 9.95062 
7.32941 8.22982 9.89917 8.49491 8.14162 9.53766 5.05623 7.11989 10.1016 
5.74064 5.56855 10.1306 4.11716 5.58079 9.87135 
POLYGONS 709 2124
OFFSETS vtktypeint64
0 3 6 9 12 15 18 21 24 
27 30 33 36 39 42 45 48 51 
54 57 60 63 66 69 72 75 78 
81 84 87 90 93 96 99 102 105 
108 111 114 117 120 123 126 129 132 
135 138 141 144 147 150 153 156 159 
162 165 168 171 174 177 180 183 186 
189 192 195 198 201 204 207 210 213 
216 219 222 225 228 231 234 237 240 
243 246 249 252 255 258 261 264 267 
270 273 276 279 282 285 288 291 294 
297 300 303 306 309 312 315 318 321 
324 327 330 333 336 339 342 345 348 
351 354 357 360 363 366 369 372 375 
378 381 384 387 390 393 396 399 402 
405 408 411 414 417 420 423 426 429 
432 435 438 441 444 447 450 453 456 
459 462 465 468 471 474 477 480 483 
486 489 492 495 498 501 504 507 510 
513 516 519 522 525 528 531 534 537 
540 543 546 549 552 555 558 561 564 
567 570 573 576 579 582 585 588 591 
594 597 600 603 606 609 612 615 618 
621 624 627 630 633 636 639 642 645 
648 651 654 657 660 663 666 669 672 
[...]
CELL_DATA 708
SCALARS scalars double
LOOKUP_TABLE default
-4.7197197634 -2.7107289723 -6.2759101064 -4.2321393748 -6.264619104 -6.3250682397 -3.2111612078 -5.8100601408 -9.5120147858 
-5.8145876573 -8.829464678 -5.6165624375 -9.1400830882 -0.3142328512 1.075816347 0.95695057006 -0.3552360676 1.0321252747 
2.0806856264 -0.67772373267 1.8125085 4.3524088824 4.3376424529 3.6708018558 6.357978936 7.9917546215 7.8378154266 
6.9417292088 6.7959460328 3.1544449365 1.6028172053 3.0989700178 2.3179730719 -0.81037346107 -1.5482044248 2.6633748676 
-1.8827830428 -0.84841082066 2.6202951085 2.8336493682 3.0887268099 5.0980063755 3.5162027663 8.1798377879 6.0136927988 
6.3515671368 7.6386346539 8.2235674632 5.4931836778 1.298043256 0.92897156057 0.99898737165 6.780553406 6.1086773448 
5.8936919966 7.2287466837 2.9804354785 7.2403740427 6.5789414736 3.2124099787 2.1330305105 3.275347936 4.3571472549 
1.7167122524 1.8474928952 2.3909239642 1.8845463855 4.7730779638 4.1925439596 4.5323529014 -0.21875374482 -2.2395037598 
0.55434189224 0.028992317453 -4.6387826925 -2.406057628 -5.8817697382 -3.0032958499 -0.14330029195 -4.5850227961 -6.3124684055 
-0.60805273957 -1.4044151194 -2.9923253404 -1.5545656461 -3.0559665897 1.1202274786 -1.5524714932 0.141980356 -1.228160058 
-1.4624141557 -5.9222171691 -4.8548638811 -7.5464649631 -2.7278865103 -3.6421197271 -7.3947247464 -7.4564601164 -7.7667737747 
-2.5779948422 -0.56865265991 -1.0730818002 -6.2579947613 -1.4051139879 -2.3356049123 -2.1152006123 -0.31402601307 1.380471938 
0.49502236716 0.40408976457 0.23189021846 0.92166712514 -0.81497011957 -0.61537904018 0.7338108883 -0.80236876987 -0.14802937602 
-0.10992502639 -2.7817967291 -6.5301893364 -2.3976360134 -6.7839160164 -4.3963033306 -3.1944956667 -6.4738961547 -4.5347263675 
-4.7882606659 -3.6477995523 -2.4485051284 -1.8061503688 1.2120687277 -3.8298688463 -0.066108950609 -0.21732571521 -0.70330152797 
-0.27392888439 0.76968741675 1.3874383581 1.9607716095 2.3830382854 0.36641207715 0.81733753252 1.7419395835 5.3192308899 
4.7755192983 1.9675022219 2.3317004461 2.4707299978 1.2320276923 2.651797197 1.7367511547 -0.64270002286 -0.19717449597 
0.98017154896 -0.7458252787 0.38495874647 0.35309435792 1.6747117488 -0.38641154312 3.2622519459 0.86940310266 4.4460012144 
2.0703360825 1.2118065216 4.5785252206 4.959320499 4.1299263331 0.39517285869 0.68780777294 -0.040048351067 -0.39334702459 
5.3022385873 4.0957164644 5.477978254 0.070005212215 3.135878218 3.0897521858 2.4099797104 -0.18914749865 1.8441504238 
-0.10681351797 0.52067470514 1.8878360851 1.6936896255 -0.97022630572 0.65390485866 1.5094567808 1.5502211145 -1.0344208768 
-1.2268361191 0.66906532463 -0.02165370022 -1.8899318395 -3.9324239879 -2.7460998973 -0.27547011692 -5.8600193046 -3.7230140187 
-4.5359962087 -3.718264123 -3.9752858834 -0.088213074479 0.52154568671 0.065971930875 -1.2152106198 0.80341239528 -0.26059333637 
1.1457146743 -0.66613988421 -4.1970014336 -2.8937644775 -0.61866399109 -0.43499659334 -2.9310781113 1.1232076098 1.2857913113 
4.5461571234 -0.45874606171 -1.4323603332 -1.7511042074 -5.4702606688 1.0165372408 0.64120316658 1.6855166628 0.090723993534 
-0.99176296053 0.86057164284 -0.36426809766 0.89652525034 -0.22264893274 -1.5120600158 -1.5617329342 1.419356895 -0.23490103651 
-1.2750377527 -1.4605376762 -5.3278772127 -3.1133371448 -6.8511514933 -3.2721183596 -6.7739099928 -2.3125734681 -3.9504876101 
-6.9143259158 -4.1314494956 -7.8723102306 -8.9890150487 -5.087502108 -7.5571262012 -7.2823318045 -4.7230875585 -9.2672985603 
-5.893027471 -6.2229004777 -6.8198981282 -5.4951012624 -6.2903166689 -9.7530451451 -7.6430607155 -9.1686473064 -9.1939986419 
-9.1368645158 -8.8277110794 -6.6132062296 -8.1922454887 -7.9095360066 -9.209075188 -6.3350219223 -6.5916690988 -7.544670284 
-6.6558906221 -7.2256079258 -8.7483151228 -7.1519776832 -7.7004667423 -8.4981723666 -8.731342872 -8.9631726047 -9.5066638478 
-8.788318778 -8.7980602459 -8.5127781184 -4.9170317295 -7.0441403649 -8.5250214937 -8.8135465872 -9.1269456614 -8.5679753157 
-8.9952563307 -8.097380187 -4.7176274523 -9.1847643868 -9.148799073 -9.3498101877 -8.8136429102 -8.7532967208 -9.9855816993 
-9.795460735 -9.9799671901 -9.6543225274 -9.72637403 -9.2299408711 -9.5521011731 -9.7373600976 -9.6560284777 -9.4438721822 
-9.7921784742 -9.2345856167 -9.1423849049 -9.8207254693 -9.2914049166 -6.7672655042 -8.8798681206 -9.7509448665 -5.8788582089 
-7.575271193 -5.9856659406 -9.4778010965 -7.7422725824 -9.7522690706 -8.9373758672 -9.3212044054 -9.3036003789 -9.5562318476 
-8.3575720889 -9.2871149991 -9.206956908 -7.1118543203 -7.8589950659 -9.9101494241 -6.4696856492 -7.7731789951 -9.3538748791 
-1.3791890382 -4.8880292967 -8.1931476566 -9.1745090215 -8.925323415 -9.8530631161 -9.3515847356 -9.717531994 -9.388071762 
-9.9886068887 -9.2471020202 -9.9442497168 -9.9441333455 -9.7663174749 -9.7542591504 -9.9312143717 -9.776632625 -9.9062290511 
-9.7679765859 -9.9853134745 -9.9121502045 6.2190203075 5.5550853771 7.057772747 2.7544927146 7.7985247393 8.1389965452 
3.1784287592 8.5826968671 7.0967273669 7.9466918418 8.5998357018 7.1663639507 8.1861966272 7.8906238745 7.0501412166 
7.7336227509 9.4060305263 7.4009176973 7.335238384 9.9802014872 7.9176237023 9.6927531204 9.3581201104 9.9089842914 
9.8914799087 8.6327375096 8.5650445947 7.5301964225 8.7223171453 8.5026784301 7.6834756071 9.0964532912 9.1439044625 
7.56659793 8.6657657376 8.7837528113 9.9856640405 9.089274844 8.9995270848 8.3923680383 9.9558634399 9.7332979193 
9.5999650311 9.7309626218 8.4277123144 9.1558831622 7.7774513175 7.837986499 8.9783145888 8.4321994576 9.3877881989 
9.8925424986 9.1866065381 7.9330186693 9.347829788 9.631172464 8.8257326874 9.929942082 9.15594094 9.5829638796 
9.7740334558 9.8736524771 9.8229823978 9.767194344 9.9982347253 9.7465907081 9.9084836844 9.9743068059 9.5836043546 
9.7535477222 9.58127169 9.9760677326 9.9440356731 9.9789672637 9.9767270077 8.4362971892 8.757459816 9.9429321577 
7.0231489014 7.8620308124 8.5911077814 9.0219149098 8.1181495452 9.9660487799 9.895276611 9.8925086917 9.914784386 
9.9529423215 8.9584040925 9.9862799002 9.8374683624 7.2863021274 6.9951044964 9.9787068624 8.1098181775 8.4944766557 
9.9305468126 4.9713259059 7.0279453322 8.9429211313 9.6965330538 9.4737064926 8.306056645 9.9113477912 9.9260480622 
9.9102897465 9.8987858555 9.9229610922 9.948252256 9.9522152603 9.9833751642 9.9473004905 9.8191065491 9.9355230344 
9.9590564812 9.9787283513 9.8898938376 9.9283240433 4.3803892533 9.059984282 3.9367963701 8.900816382 4.9058593338 
9.3587782253 9.4284037634 5.5430608487 9.3400527164 5.6568511411 3.5669652676 4.5135426517 7.1122874638 4.6380204033 
5.3401863133 -1.8505153029 -1.5087589177 0.55267360139 1.2814123832 -0.046127056403 0.25973017029 -2.2634858312 -4.0096937078 
-1.4094111197 -2.4093403835 -4.4248358262 -4.3413487219 -2.8554079366 -3.0382960014 -3.2667180818 0.031269989408 -3.5863678894 
-0.13859155467 -2.1686490243 1.3733814001 0.78272952683 -0.12424836439 2.097647517 -0.88657520091 0.39695222955 -2.7160638039 
-3.8692950572 -2.189182506 -2.4405158965 -4.4367544577 -6.0223311195 -4.1685944698 -5.8864425268 -5.5677480963 -4.454360075 
-2.2991330486 -3.1454617734 -3.1800661333 -0.37821569028 -4.706516803 -5.6187159226 -5.6534473549 -3.8974669616 -4.3142050082 
-4.9521812858 -1.1414563443 -0.3639056728 -0.85739643467 -1.3365274853 -1.3882032754 -2.8823055866 -2.7298901011 -0.94099140246 
-2.8395012065 -4.0196827006 -3.2722097924 0.093350364473 2.2028701191 1.9139502092 1.3112751661 5.56879004 5.3336258368 
2.7996967204 6.7624191974 5.492295639 5.8247058323 1.1135791531 8.0216370132 2.1767949234 0.61554223147 1.9919730522 
0.76211518546 -0.30348657361 1.7686414072 0.035821758334 3.2680839593 5.4892758649 4.8150071855 -0.44901811096 1.0562692064 
5.0767059633 -1.6344166139 -2.648888129 -4.3038345087 1.092528968 3.0328889471 3.1650000571 0.92057695453 3.0666626739 
3.2424939634 3.8042080022 -0.067577268225 0.99501183954 -0.37649631844 0.90025924711 1.6906460701 -1.4869632009 -0.82576868526 
-1.1076543422 -0.84225315251 1.8886369359 0.7902765261 0.79319420759 2.510861232 8.0129510722 3.9890693416 9.4297508353 
5.1067912832 6.0329212372 9.5348639433 3.635763415 1.6079434709 4.3824182188 0.68905670792 3.2656758481 6.3538430629 
4.2736940426 2.2900891438 -0.63537647602 -0.63948333242 0.9827650552 -0.0058025118727 0.33909548026 0.48646494136 -1.0892174707 
-0.73008071499 -2.1236437187 -0.82656800743 -2.5279383099 -4.2445048158 -4.8088121034 -4.7376635099 -3.6719576195 -0.44845028962 
-0.5237924222 -0.075033722898 -1.5641943297 1.8003908465 1.7472590133 0.80832653349 0.2203757679 -0.39463800975 1.3747157472 
1.4401995071 -2.6566794959 -3.1521155193 -3.2773836427 -4.3715221424 -0.76528749842 -4.683540861 -2.5442595018 -1.6254931576 
-3.2731049846 -2.4701435506 0.35625880158 -2.217207005 -0.90759817989 -0.91055407927 -2.3171190791 -2.0345318538 -0.19741610396 
-3.8645341188 -3.3972291573 0.50050219073 -2.3642896237 -1.4275326765 -2.4532772144 0.02067902309 0.29159830519 0.79695220557 
-1.582226528 -2.0731077484 0.17433768062 -1.0925092101 -1.9025504392 0.6128902724 1.2126399571 1.0308839233 1.641106652 
2.8785366263 0.54076735203 5.4561166229 4.9550185427 3.4021655141 6.3630298668 6.7738480097 -0.60024308818 0.21749346443 
-0.16623264487 0.71031107737 0.88668383211 -0.10550761281 -0.215593085 -0.078853836847 4.9821365915 4.4167468645 -0.84819822992 
2.6366022357 4.1849914802 -3.5347666971 1.2744809448 -4.8564916332 2.3669920073 0.43988508382 2.0379594477 2.6133102346 
0.4342346992 0.84898709393 1.0932624834 1.3114053953 -0.49630370866 -0.68918954248 -1.3265407646 -0.79312309759 1.6854803853 
-1.5764627404 0.85551386452 0.88684843947 -1.5548904505 0.72556669212 -0.51197085635 
