# vtk DataFile Version 5.1
vtk output
ASCII
DATASET POLYDATA
POINTS 356 float
0.50043 0.561612 0.321348 0.565185 0.55912 8.71768 0.730909 8.35322 0.268032 
0.903392 8.24967 8.58521 8.54057 0.732307 0.230479 8.53125 0.861516 8.69116 
8.68855 8.34989 0.348364 8.74153 8.27444 8.66673 -0.0737145 0.133229 1.20861 
-0.460643 -0.166939 2.54943 -0.613437 -0.271459 4.13458 -0.565012 -0.228992 5.56882 
-0.394772 0.00461043 6.87176 0.0365918 0.246384 7.81803 -0.0476846 1.31911 0.0809293 
-0.0892623 2.53694 -0.501237 -0.322419 4.07648 -0.472053 -0.297106 5.7733 -0.319384 
-0.144557 6.91823 -0.0691907 0.346869 7.93677 -0.165712 0.358588 8.52355 1.28348 
-0.0908226 8.73139 2.67532 -0.115498 8.7211 4.20955 -0.143522 8.72136 5.55944 
-0.0143 8.75333 6.87737 0.538175 8.54814 7.91733 0.173234 1.35389 8.77078 
0.0638212 2.49766 9.28662 -0.16335 4.06178 9.21859 -0.186439 5.74468 9.19103 
-0.0717362 7.0777 8.95196 0.769303 7.73207 8.77062 8.84592 0.305738 1.09862 
9.18322 -0.1715 2.39384 9.48551 -0.467529 4.07119 9.42464 -0.371721 5.67349 
9.28693 -0.0920959 7.11895 8.94628 0.41707 8.09525 8.79042 1.37704 0.267219 
8.89813 2.45595 -0.401745 9.18386 3.97358 -0.321038 9.20391 5.67128 -0.326727 
9.26643 6.97541 -0.0373349 8.63401 7.78281 0.108248 8.89091 8.78318 1.21203 
8.79533 8.73471 2.59303 9.05304 8.8758 4.06887 8.94643 8.85676 5.63322 
8.94331 8.86936 7.00913 8.70777 8.59021 7.99025 8.96082 1.39187 8.82818 
8.71872 2.55767 9.16343 9.11123 4.10244 9.0528 9.00211 5.63529 9.18322 
9.15975 6.93227 8.97211 8.60204 7.69024 8.81014 1.4251 0.405241 -0.258294 
2.72762 -0.161178 -0.276372 4.36047 -0.0646429 -0.499 5.80809 -0.123994 -0.599271 
6.85814 0.252073 -0.407189 7.88411 0.319348 -0.0730111 1.54034 0.681723 8.87405 
2.56885 0.0777785 8.88126 4.34466 -0.0897562 9.10337 5.86225 0.13034 9.08751 
7.07079 0.238566 9.09296 7.94855 0.685447 8.91256 1.4139 8.5508 -0.285295 
2.58504 9.05265 -0.287781 4.33256 9.19068 -0.561497 5.8316 9.07087 -0.589306 
7.04886 8.78417 -0.381308 8.04336 8.615 -0.031292 1.58577 8.37488 8.9591 
2.66258 8.82115 9.07351 4.32579 8.83886 9.23372 5.82359 8.81255 9.25465 
7.09681 8.65874 9.23054 7.92689 8.38674 8.92331 -1.22234 0.169398 4.87184 
-1.32425 5.9801 1.73721 -1.24409 6.03772 7.50158 -0.886746 0.524598 7.64132 
-0.949097 0.472618 1.74012 -0.76409 3.21283 8.50176 0.092626 7.84794 8.35586 
-0.863132 7.93026 6.29885 -0.992038 3.19931 0.505252 -0.830206 7.98112 3.32438 
-0.116461 7.72742 0.699133 -1.8299 5.8702 4.84467 -1.88747 2.95449 3.23658 
-1.86109 3.00226 6.35096 -0.154856 0.665829 8.61055 -1.22493 0.13832 6.36149 
-1.33691 0.152112 3.29019 -0.165654 0.794435 0.558222 -1.17017 4.74945 8.33046 
-0.75369 6.09969 8.35197 -0.792192 7.07388 7.9733 -1.18453 7.05157 6.92383 
-0.373263 7.78643 7.36323 -1.11332 4.7294 0.655958 -0.888875 6.03904 0.648231 
-1.22145 6.97625 2.63178 -0.762292 7.00555 1.31255 -0.556885 7.92376 1.93592 
-0.977957 8.0074 4.89034 -1.49224 7.17222 4.16143 -1.6781 5.94377 3.25365 
-1.32749 7.03147 5.57751 -1.79031 5.97177 6.34581 -1.78995 4.61018 2.51043 
-1.5058 3.20436 1.78341 -0.848896 1.34022 0.940235 -1.37778 1.17633 2.59048 
-1.55863 0.864127 4.13409 -1.73167 4.61466 6.93197 -1.44087 3.09331 7.54826 
-1.52837 0.846456 5.57563 -1.25121 1.08664 6.87768 -0.645719 1.42418 8.20312 
-1.96085 2.94228 4.92767 -1.97802 4.47015 5.56375 -2.02295 4.44387 4.0382 
9.601 0.393183 4.84268 10.1166 5.84995 1.79524 9.95859 5.87015 7.51786 
9.33423 0.809794 7.56545 9.43664 0.725312 1.85015 9.3359 3.10846 8.47007 
9.03522 7.7381 8.35291 9.51608 7.90893 6.32757 9.47481 3.13461 0.594405 
9.59191 7.95062 3.30697 9.05218 7.78666 0.798635 10.0464 5.82168 4.89556 
10.2097 2.83447 3.17717 10.0328 2.9625 6.34961 8.78274 1.05696 8.34615 
9.39351 0.610919 6.31937 9.51036 0.539654 3.11155 9.12138 0.88129 0.477639 
9.71099 4.62997 8.3075 9.37888 5.99791 8.38964 9.4993 6.90857 7.99418 
9.7247 7.00876 6.91538 9.227 7.78433 7.43255 9.96522 4.6402 0.814829 
9.38728 5.99177 0.764183 9.68623 6.88939 2.64532 9.6256 6.99123 1.23849 
9.47252 7.88758 1.92207 9.44438 8.10221 4.91893 10.0306 7.00929 4.07707 
10.2745 5.78769 3.29522 9.92219 7.00025 5.65082 10.2226 5.79641 6.42421 
10.0525 4.40513 2.58681 9.99849 3.06218 1.82366 9.47498 1.49108 0.920635 
9.70461 1.36107 2.53111 9.94838 1.09847 4.17675 9.97147 4.3999 6.97742 
9.90613 2.98121 7.49173 9.9252 1.04505 5.54816 9.75106 1.23207 6.9388 
9.39285 1.48001 8.11381 10.0782 2.88916 4.85778 10.371 4.4361 5.5252 
10.4085 4.41412 4.16658 3.88039 -1.46976 1.52717 3.93465 -1.35958 7.61141 
8.598 -0.915327 4.87615 8.46861 -0.182068 7.71821 8.569 -0.6313 1.62819 
6.61715 -0.57007 8.59472 1.4197 -0.119691 8.38554 1.26303 -1.16234 6.32751 
6.51713 -0.670957 0.352121 1.1669 -1.17251 3.30482 1.351 -0.285081 0.521856 
3.99682 -1.97986 4.91491 6.56671 -1.58529 3.13255 6.64369 -1.51148 6.52138 
8.5447 0.292424 8.63277 8.77064 -0.743577 6.44479 8.62612 -0.86414 3.0792 
8.38475 0.11408 0.358559 5.30107 -1.04187 8.19508 3.82571 -0.704812 8.34886 
2.61355 -0.852625 7.88172 2.62367 -1.32861 6.91846 1.25962 -0.656814 7.45952 
5.24788 -1.01458 0.596849 3.88385 -0.935123 0.342437 2.49953 -1.473 2.49215 
2.72221 -0.915617 1.1555 1.29258 -0.731915 1.73076 1.15425 -1.22581 4.89511 
2.62177 -1.62016 4.13122 3.95052 -1.73306 3.18308 2.59005 -1.67156 5.65293 
3.96877 -1.62918 6.43487 5.29385 -1.73717 2.35306 6.61895 -1.27573 1.51133 
7.81801 -0.450439 0.71683 7.86691 -1.19921 2.35446 8.11027 -1.50215 4.06237 
5.27089 -1.63664 6.99828 6.59738 -1.19308 7.59552 8.18446 -1.35598 5.75733 
8.19767 -0.876147 7.14383 7.89837 -0.242261 8.28567 6.61175 -1.73233 4.90513 
5.38291 -1.94074 5.71292 5.33809 -1.96605 4.04358 3.8058 10.0098 1.91406 
3.85018 9.65279 7.41799 8.73001 9.38124 4.8918 8.34174 8.98142 7.52551 
8.37137 9.1796 1.82249 6.56086 9.15873 8.56121 1.36421 8.91194 8.39198 
1.12823 9.36279 6.2973 6.62735 9.56754 0.504016 1.03953 9.38303 3.3161 
1.30489 8.93715 0.721684 3.84282 10.3053 4.86657 6.72633 9.87615 3.33161 
6.74378 9.87011 6.33904 8.14035 8.49393 8.51465 8.44911 9.17863 6.25952 
8.57009 9.43148 3.33084 8.27259 8.63902 0.742902 5.17722 9.59115 8.34688 
3.73228 9.56036 8.56162 2.58981 9.43097 8.1099 2.3843 9.82369 6.89451 
1.26276 9.13131 7.41312 5.16346 9.68833 0.858729 3.6561 9.81847 0.556679 
2.30666 9.94216 2.63683 2.44224 9.46284 1.16419 1.11681 9.37032 1.93677 
0.900968 9.52344 4.8562 2.41123 9.88785 4.20703 3.83756 10.1467 3.25922 
2.38304 9.91769 5.48562 3.83187 10.0705 6.35296 5.45982 10.1828 2.58173 
6.65375 9.66969 1.77265 7.79991 9.21941 0.956361 7.82509 9.53695 2.61639 
7.93277 9.4772 4.19987 5.34754 10.0862 7.05635 6.66827 9.64878 7.58874 
8.07133 9.70315 5.58349 7.99679 9.51069 7.03824 7.82296 9.12706 8.15615 
6.79833 10.1476 4.88735 5.3218 10.1648 5.51346 5.33822 10.1013 4.19844 
1.73886 3.8306 -1.60358 7.54565 3.82071 -1.5666 5.05287 8.76041 -1.26058 
7.78598 8.46534 -0.684228 1.76025 8.25583 -0.73124 8.31899 6.47287 -0.71953 
8.25135 1.52321 -0.367775 6.39852 1.11093 -1.29774 0.636754 6.4322 -0.923487 
3.46654 1.16553 -1.30825 0.817899 1.32197 -0.537459 4.90642 3.93901 -2.03327 
3.25503 6.54445 -1.83281 6.54046 6.68826 -1.80902 8.53174 8.27461 -0.177221 
6.5119 8.59968 -1.1088 3.43187 8.58193 -1.01943 1.02033 8.02084 -0.216768 
8.27153 5.14882 -1.18467 8.37043 3.68991 -0.973849 8.03666 2.50167 -1.14482 
6.9038 2.50174 -1.41332 7.46434 1.1913 -0.938808 0.747469 5.08121 -1.28885 
0.610936 3.67266 -1.09044 2.59801 2.42113 -1.65067 1.23329 2.54429 -1.16693 
1.98281 1.35315 -0.877856 5.02559 1.0364 -1.30225 4.17744 2.49764 -1.82995 
3.21746 3.86665 -2.02388 5.64833 2.46352 -1.84379 6.37175 3.87307 -1.99218 
2.52224 5.24978 -1.85113 1.71395 6.489 -1.51707 1.0847 7.63707 -0.82551 
2.62106 7.96377 -1.35798 4.22479 8.07587 -1.51509 7.03929 5.28489 -1.93042 
7.62573 6.56002 -1.45837 5.80058 8.02225 -1.47235 7.09503 7.93149 -1.07573 
8.29643 7.75814 -0.619973 4.94383 6.6833 -1.95434 5.67013 5.32559 -1.94881 
4.04828 5.30919 -2.08969 1.92076 3.84785 10.1202 7.47787 3.78635 10.1795 
5.06687 8.45612 9.86022 7.67287 8.13627 9.43955 1.91647 8.25071 9.66052 
8.30922 6.46136 9.35356 8.20802 1.56227 9.02187 6.46091 1.19651 9.77046 
0.794002 6.37959 9.2494 3.44551 1.12183 9.61229 0.989948 1.50074 9.31927 
4.85506 3.9613 10.2607 3.28731 6.55791 10.211 6.48674 6.55784 10.3136 
8.3373 8.07839 9.01147 6.42707 8.41689 9.69778 3.44939 8.43905 9.73981 
1.01655 8.13956 9.18223 8.31395 5.04823 9.84365 8.333 3.68962 9.55124 
8.08172 2.49898 9.7536 6.84461 2.50901 9.8911 7.43231 1.31765 9.50978 
0.88054 5.10324 9.92001 0.802892 3.63302 9.49048 2.71953 2.45939 9.82591 
1.34516 2.55215 9.68956 2.08244 1.30103 9.63441 4.98742 0.941065 9.5982 
4.21521 2.41237 10.2697 3.22979 3.89837 10.3743 5.55227 2.39887 10.2172 
6.42843 3.85152 10.3626 2.57399 5.29477 9.99472 1.77616 6.53469 9.98474 
1.24684 7.50128 9.39987 2.79156 7.67049 9.50104 4.15754 7.81357 9.98801 
6.96097 5.2796 10.03 7.61503 6.53731 10.0588 5.81283 7.72766 9.82557 
7.01094 7.7538 9.61723 8.20907 7.60526 9.42789 5.01184 6.83414 10.1094 
5.65175 5.35058 10.4954 4.12615 5.38754 10.4749 
POLYGONS 709 2124
OFFSETS vtktypeint64
0 3 6 9 12 15 18 21 24 
27 30 33 36 39 42 45 48 51 
54 57 60 63 66 69 72 75 78 
81 84 87 90 93 96 99 102 105 
108 111 114 117 120 123 126 129 132 
135 138 141 144 147 150 153 156 159 
162 165 168 171 174 177 180 183 186 
189 192 195 198 201 204 207 210 213 
216 219 222 225 228 231 234 237 240 
243 246 249 252 255 258 261 264 267 
270 273 276 279 282 285 288 291 294 
297 300 303 306 309 312 315 318 321 
324 327 330 333 336 339 342 345 348 
351 354 357 360 363 366 369 372 375 
378 381 384 387 390 393 396 399 402 
405 408 411 414 417 420 423 426 429 
432 435 438 441 444 447 450 453 456 
459 462 465 468 471 474 477 480 483 
486 489 492 495 498 501 504 507 510 
513 516 519 522 525 528 531 534 537 
540 543 546 549 552 555 558 561 564 
567 570 573 576 579 582 585 588 591 
594 597 600 603 606 609 612 615 618 
621 624 627 630 633 636 639 642 645 
648 651 654 657 660 663 666 669 672 
675 678 681 684 687 690 693 696 699 
[...]
CELL_DATA 708
SCALARS scalars double
LOOKUP_TABLE default
-4.4753569722 -8.8565505361 -4.1846971245 -9.3887489113 -6.3663945829 -8.3339217423 -8.6630772037 -6.0601897434 -9.0497547101 
-5.6419546392 -7.9839798756 -5.4990227823 -6.584515046 -3.8699316568 2.5343607438 2.2485564468 -0.74404216888 -1.0523796011 
1.749062051 0.032398460139 2.4435414996 6.5606863508 5.5544668733 6.4338045236 4.0100795281 4.9321319141 5.0704256256 
6.6483663231 6.3750810472 6.2081313522 1.5453764458 5.3283866895 1.9460887679 -1.0533780928 -1.9654776264 1.5556573831 
-0.088854148027 0.6572656435 1.3860071066 3.6014272759 4.6683572317 4.310448361 3.9449110685 6.9890585015 6.542586486 
6.5705162445 6.7445923433 6.0866886423 4.0333071257 3.4359095043 3.8225933204 2.2760398702 7.5373863341 3.7625134297 
7.1720545138 6.9860606743 4.7806349059 7.3806380383 7.6508368259 2.8614120543 2.089766318 2.9132367281 3.9851713282 
3.9854359275 2.778628131 4.513330773 3.1703342455 3.9491393322 5.7594613319 4.231312751 1.2989014967 -0.36800882146 
-0.58628912454 -0.1220711284 -3.2943689042 -5.4645205719 -5.1388808434 -2.1894960469 -4.0982724565 -4.3773663389 -6.2037498431 
-1.364370154 -1.843515477 -1.7015735411 -1.5663637502 -1.8470241174 1.7399009655 -0.44726504703 -1.4571919313 -0.25422518341 
-2.328501722 -6.3584739179 -6.1826432471 -1.5328450259 -1.5721577536 -5.1648563037 -0.18734223046 -1.4743893863 0.77154789277 
-1.5037827454 -1.9986986499 -2.3258314115 -4.2372539502 -1.7883004074 -1.7363811315 -1.9667287072 0.1574907025 1.4104839947 
1.1455244881 0.32524645115 -0.082891215868 1.8074803919 2.0157386518 1.5583973439 1.1896632665 -0.67127702508 -0.40994632313 
-0.23647315852 -3.6711515607 -0.20119683508 -3.472511069 -0.35238274176 -3.3994253203 -1.7481464321 -2.6131691902 -2.59204669 
-2.2458839162 -3.1479235452 -4.5672202934 -4.7397221755 -7.5215165118 0.27832177781 1.7024295419 1.7827607336 -1.6090338276 
-1.4204456141 -0.43522674032 0.019975822228 3.0748747613 4.0848473919 3.8332947576 4.1690128029 -0.046236586356 3.4186971627 
3.5245768525 4.0827582541 4.2589980602 5.5233642713 1.2282960452 3.6491820958 0.17335796948 -1.4642679521 -0.89724368232 
3.19995766 -2.114026763 -0.11651659323 3.7152895124 3.9044316569 1.4463050812 4.1169589833 1.8942200563 6.0748446709 
2.9205439745 2.9075077498 5.849487257 6.660461991 4.7471531254 0.74740678729 -1.0103805539 -0.11232817195 1.3608998894 
6.0632181547 5.3080894054 5.136409659 2.368563865 4.8138663033 5.0621449889 4.3416237024 1.0824412592 3.3918149286 
3.1201465948 1.7362414093 2.9975041545 3.2558931846 0.60795232873 4.0263072922 4.4848327091 4.3269846596 -0.76564271654 
-2.3233064221 0.43720952077 -0.11340366924 -4.4383100555 -1.0837893866 -4.7884750334 -2.4720945728 1.3935678772 -3.0976302832 
-2.899890029 -3.522311419 -2.3721572861 -2.430932907 -0.7823477122 -2.3063795724 -0.65965927722 -0.057962276285 -1.535369081 
0.23038347384 -1.1304668946 -2.6368761559 -2.5057903295 -6.1879166858 -1.066064472 -2.1391872738 -3.5461315345 -6.4659073361 
-7.3458127013 -0.81575539721 -1.2263099921 -1.8410990873 -4.4346281688 -0.70047567639 -1.0263163762 -0.77510266736 -0.7378840066 
-0.79376546678 1.7917958085 -0.68870635326 0.14971451238 1.8068336841 -1.0325002331 -0.44110928128 2.3790402209 -1.751477732 
-2.0240107672 -1.985171585 -7.1226159859 -0.41694074211 -7.6740200371 -7.2864932814 -7.8249901102 -8.6334923346 -7.0674300138 
-7.8262907628 -7.4267427255 -7.8774032767 -4.5200266262 -7.5386044224 -3.0002428769 -3.0450959574 -5.2380779311 -7.5131143681 
-7.3699674183 -5.4212245237 -5.9641846483 -7.1187303817 -6.3251894835 -8.6990726623 -8.0915650463 -8.7764137176 -8.6719636279 
-8.1402100524 -7.8676376706 -7.6082350277 -7.5670262993 -4.6834823729 -7.4994865698 -7.2574767025 -7.2521561078 -5.1104862737 
-6.6848025102 -6.6969410804 -9.1126003003 -8.2179773108 -7.8271559683 -7.1665736352 -8.6732424175 -8.8682904101 -9.0283212286 
-8.6983783012 -8.6698611094 -8.4888185948 -6.3119401511 -6.2730255751 -8.52058104 -8.6967767218 -8.6870522474 -8.7183176477 
-8.3664808854 -6.7655815711 -6.9664640368 -8.7515139222 -8.3038984522 -9.6371528933 -8.8538718174 -8.7143768122 -9.829262365 
-9.747478175 -9.8710334949 -9.3828453236 -9.7027747645 -9.6630485814 -9.5746067487 -9.7180881434 -9.4241030474 -9.6053834293 
-9.5987113873 -9.2327186489 -8.7180216922 -9.5899695147 -9.2118540264 -7.0202846013 -5.1953268009 -9.6588830349 -6.9902645452 
-7.5344038948 -7.8159309862 -7.9633646263 -8.6899807724 -9.6723581265 -8.4290665341 -8.5677839187 -8.9554571716 -9.399623613 
-8.4109707386 -8.9204014841 -9.1609530954 -7.686050532 -6.6144243646 -8.0766976492 -6.2248930692 -8.0651976636 -6.4359957962 
-0.85753125596 -5.605002558 -8.0521281088 -9.2188814168 -7.9643727165 -6.5834973152 -9.7791171365 -9.9090030996 -9.7826486108 
-9.5539870785 -9.704296912 -9.6988448566 -9.7009165702 -9.7034386216 -9.8713387216 -9.835555236 -9.8772305368 -9.9969716018 
-9.6791759285 -9.6096208087 -9.8473427171 8.0468226623 8.8771350111 8.2794068608 8.4321101753 6.9414555912 4.588769911 
8.259000915 8.2307258377 4.8270274819 7.6626793371 7.5046204073 5.8487361069 8.7561989941 8.6782940333 6.7514330324 
9.9678308522 7.1661165493 8.3683076759 8.0309774536 6.4330359718 7.6054249193 9.5161831377 9.1269194131 8.7197247603 
8.6207881394 9.0228457479 8.3169719544 5.7360462062 8.3085857338 6.1695212956 9.8827022645 8.1605439263 7.9618843277 
5.3616067245 7.8122642502 7.7031039563 9.8180900117 9.1603918576 9.2861925999 8.9885709971 9.2700712224 9.0802679131 
8.9225344358 9.1354777783 8.6688622986 7.606295575 7.8095858244 7.7936931309 7.5447555371 8.7431094602 9.0725245901 
9.410235625 8.7173502339 8.200780069 8.5453349161 8.3434112477 8.8701590373 9.2434307901 8.1594014892 7.8884574678 
9.9083125453 9.6658270728 9.8771151681 9.2705418665 9.6938915292 9.3061293788 9.8742642754 9.6307209418 9.3665406098 
9.539350175 9.6890639067 9.6061182711 9.9472940469 9.4052907333 9.3297009507 8.4486308706 8.8449874093 9.5254774639 
6.6408820894 6.8324539379 8.4025706541 9.9326270212 9.2284333924 9.6811978815 9.4620315003 9.5236552367 9.2506098868 
9.5288371406 8.6600414507 9.1566657572 9.6977201809 7.1282617218 7.3791137207 6.823664176 8.5162143945 6.0216950651 
7.1282727933 9.0176650055 5.9611660414 8.7254481312 9.6743297761 9.0657064061 9.4521497592 9.5453750358 8.9040256155 
8.9116594174 9.8319294072 9.1515099506 9.8740105576 9.9809018548 9.7794872012 9.9097973268 9.9299082995 9.9873807153 
9.9232706256 9.8343564657 9.7739770724 9.9879281309 5.0766365344 8.2627398912 5.1414570452 8.6351808469 5.8927743929 
8.7696187721 9.1168949824 6.5213005482 7.3448069531 6.691960424 6.7770780685 5.1157569951 7.742480997 3.9407103877 
6.1613607355 -0.78949670112 -0.67464981605 1.6141123582 2.5285696593 -0.80021119515 -0.10490666683 -2.1979352122 -3.8489381483 
-1.953690657 -2.4590904557 -6.075240731 -6.0405685754 -3.5495676449 -3.6144331138 -4.5582518438 -0.45220553544 -4.2604062228 
-0.73406647077 -2.3852709829 2.4432751504 2.8939499302 -0.89386076966 1.5908306223 0.77708570205 -0.60306286465 -1.7826373658 
-4.3910469493 -3.7446676059 -4.168581726 -5.8568344574 -4.2638180978 -5.6125768273 -5.4148738439 -4.4725105851 -4.7592822968 
-2.9437392331 -1.5424809456 -1.8375969982 -0.71158436796 -3.7863252083 -5.0296181795 -5.8134058335 -3.2041929497 -5.7124327732 
-5.5543771758 -1.3152624499 -1.3992156848 -2.0819119248 -1.9446127469 -1.1614728589 -2.6098792584 -2.6025166288 -1.3350947059 
-3.633611478 -3.5266830123 -3.4827525225 0.0045536693161 1.9184311781 1.2890625398 0.56305682252 2.1671416399 5.6922138901 
2.6967886497 8.3009202354 6.7900404257 6.3549117302 5.9285125028 5.2683346457 2.2777109492 2.4617363823 3.2183501885 
-0.34899727904 1.9470773922 2.0472128787 0.74267311385 3.8438259796 6.4066968479 6.292681547 2.1569374287 0.73868070477 
5.9240210429 1.8574515433 0.30699004886 -0.54361163539 0.6541325697 3.687226692 3.8102087073 3.0938415679 2.8832747276 
2.5685029836 3.1770995518 0.91851770298 -1.1694670473 0.44304394539 0.36845464973 1.0306532112 -0.43447769674 -0.17082847301 
0.44831759606 0.13096251793 1.5132202705 0.44315432074 0.41972003412 5.783379652 6.2096178765 3.0984343286 8.1052765343 
4.1438743539 8.5744144031 7.0546764515 5.56768715 8.3252875647 3.5870011544 8.5694856603 3.7945096495 3.213091344 
9.2821630295 5.817118382 -1.6495788469 -1.6169888946 1.0771721071 2.7944248628 -0.86106590892 -0.11323697417 -2.6791312672 
-4.5542848591 -1.6740570594 -2.5592480812 -4.267385097 -4.4271541218 -2.3030714592 -2.6597957785 -2.3414865269 0.11736270122 
-4.1904640425 -0.19098310724 -3.6251806387 1.8860411819 0.032538994024 -2.2962744643 4.2269481592 0.058410395727 -2.4383309664 
-2.6778230965 -1.6039118832 -2.2198889681 -1.0559976257 -4.7720635616 -6.0956222944 -2.9843394298 -5.1353292138 -5.8813041 
-5.3986231733 -2.3221839339 -0.78536595174 0.24656973562 0.027036141727 -4.0125634227 -5.3720395566 -5.5706082627 -2.9780526624 
-4.1203622929 -4.7026668189 -2.973853538 -0.23371077911 -2.5250146696 -1.6200892821 -0.58319099805 -2.8674989892 -2.4838231476 
-0.1035481911 -3.7633073443 -4.332295402 -4.0108718667 1.1146661979 3.4091047726 -0.86174638745 -0.18941455054 7.0056686773 
5.0883834301 3.9075836711 -0.94385698798 2.3257770319 5.9525196904 -0.057283934241 -3.0521843157 4.8896041896 1.4038277534 
4.7029441424 1.5313122623 -1.3441790535 2.343783952 -0.85850524212 4.5026690468 4.4318846913 3.9117156796 0.30564382564 
-0.2225446057 5.9011016809 1.5305643246 0.36394854326 2.6210497679 0.1695383057 4.2298791262 4.177711795 0.55533869971 
3.5307882527 1.519794844 2.1318185363 -0.86293590769 1.5920362441 -1.2540131382 0.92087759546 0.03418096181 -1.1123348799 
1.7138780562 1.1655293816 -1.5702675198 2.3343502225 2.1212400814 2.4895764226 
