# vtk DataFile Version 5.1
vtk output
ASCII
DATASET POLYDATA
POINTS 1244 float
0.78345 -1.97453 -0.285676 -0.745275 0.319007 12.4086 -0.494234 10.4874 -2.34156 
-0.0188225 15.465 9.97907 11.1253 -2.49648 -2.56433 10.8562 -1.38788 12.2921 
10.3024 10.064 -4.33946 13.7528 6.63159 9.44812 -0.0840043 -1.40637 0.78445 
0.270575 -0.66345 1.94933 -0.07514 -1.379 3.43781 -0.727835 -1.70274 4.02438 
0.412957 -2.64418 4.93873 -1.13435 -0.78981 6.49232 0.283913 -0.411418 6.64941 
-0.216644 -0.295045 7.82248 0.328012 -1.49554 9.13121 0.319033 -0.549683 -0.259198 
1.06488 2.074 -1.90993 -1.46589 2.54335 -0.687928 -1.68567 4.40183 -1.13337 
-1.5561 6.97064 -2.32028 -1.02671 6.32833 0.118132 -0.511158 6.98907 -1.34058 
-1.27511 8.08856 -1.64315 0.132636 9.3441 -0.447766 -2.53975 11.1617 -0.690624 
-3.32009 11.1697 1.29265 -3.31683 9.89555 2.85249 -4.74347 9.84804 3.38095 
-1.4184 9.58945 4.63091 -3.68066 9.7509 4.64039 -1.48149 9.7444 7.72891 
-1.11526 11.2315 8.26169 -1.29126 12.2292 8.92863 -2.44092 -0.219267 10.3474 
-1.90139 -0.510373 11.909 -1.11782 2.25359 10.617 -0.95598 3.60812 11.5971 
-1.23922 3.94494 10.3748 -1.37231 2.6278 13.4071 -2.0729 5.78763 12.0989 
-3.28652 7.68731 11.6806 -4.26026 10.5067 12.3029 10.3065 -5.23995 -0.647889 
9.4253 -3.57264 1.87645 11.1228 -3.04648 3.06722 11.0182 -1.65488 3.95476 
11.397 -2.44853 4.76547 10.1718 -3.80638 6.43175 9.8349 -4.54664 7.60534 
10.538 -4.47388 9.34178 10.2719 -3.20311 10.2416 13.0069 0.0451095 -3.97698 
11.0467 2.06488 -1.62329 11.9845 3.05555 -1.13857 10.928 5.07189 1.25655 
11.5967 6.31944 0.846403 11.3167 6.25849 -0.91481 10.7601 7.9165 -0.478195 
12.2728 9.36812 -2.57795 11.1675 11.1142 -1.75024 8.21843 15.1706 -0.710362 
8.14656 13.7641 1.37968 8.81354 11.8759 1.19247 9.07496 10.881 2.83705 
10.44 12.0987 4.63034 11.2391 12.5269 6.66731 10.3155 13.8905 7.20931 
3.05408 13.151 9.15908 5.82586 3.68232 10.154 12.1861 1.70399 14.0976 
10.948 2.67285 12.5276 9.17373 3.65943 12.6873 8.90126 4.28987 11.76 
11.76 4.18293 11.7873 11.5745 5.25377 13.271 11.124 6.81485 13.1422 
10.8899 9.63032 11.9614 10.959 14.8068 8.32853 0.963003 -0.266266 0.370375 
2.26969 -0.430802 -0.793659 2.63321 -0.476537 -1.0706 3.51337 -1.45346 -0.604648 
5.46029 0.0766605 -2.22588 6.33805 -0.217254 -1.67098 7.03334 -0.0263094 -1.96223 
8.10257 -0.513525 -1.69337 9.76896 -0.590965 -2.79523 0.10942 0.142416 11.7748 
0.970347 0.339466 11.8641 2.51916 1.24579 12.2917 3.72094 1.43541 11.3915 
4.76063 1.36418 11.3333 3.59411 -2.41384 11.6371 6.22699 -0.615121 10.0982 
8.62508 0.034385 12.3997 9.51434 -0.333098 10.2774 -0.723623 13.0143 -5.88035 
2.05399 11.7658 -3.93289 3.4416 11.8135 -2.38858 5.62154 12.8874 -0.422127 
4.14256 17.0523 -3.63322 6.50059 13.006 -3.6194 7.46593 10.3878 -2.68021 
9.01304 11.5372 -4.21722 11.1155 12.4398 -7.03911 1.09396 11.3843 9.36019 
2.33369 11.4682 10.1337 3.46723 10.8564 9.48206 3.81511 10.8297 8.58479 
7.22906 12.2099 8.08542 6.44986 10.9457 8.8966 7.47777 11.5497 8.18923 
8.90171 11.0517 8.19132 10.3807 9.81311 8.6146 -1.75993 0.936575 4.98818 
-0.187331 1.02345 2.11099 -2.27369 5.10842 2.04356 -1.77024 8.59842 0.791201 
0.767781 8.43708 0.203379 -1.57814 5.26492 7.61992 -2.20058 8.57114 11.1681 
1.47516 6.53288 16.7488 -0.966613 0.534543 7.83892 -1.14918 2.48038 12.7544 
-2.2459 2.19936 -0.0897431 0.580207 5.99146 3.50818 1.003 1.06015 1.02875 
0.572775 0.427552 6.59947 -0.596407 0.0456542 9.57878 -0.0320684 0.856544 4.9804 
-0.622442 -0.318448 3.49014 -0.500902 -0.336916 0.0937725 -1.25951 1.81691 8.15605 
-0.482863 4.52248 10.278 -1.06911 6.42773 9.16005 1.33637 9.37047 7.57758 
-0.841582 9.47204 7.40045 -1.10256 10.9153 9.12114 0.0382963 11.1214 6.70345 
-0.916267 9.60243 6.01119 -1.63451 3.94267 0.0921389 0.260125 11.1601 -0.966649 
-0.793802 6.30638 3.4069 -0.549699 5.22837 0.18661 1.3398 8.535 3.02798 
-1.30543 9.4016 4.10743 -1.53759 10.7145 3.04986 -0.313131 10.1734 1.08223 
-1.7826 8.53479 6.01903 -1.66946 8.67886 3.41879 -2.53423 7.00688 4.40587 
-0.581211 9.38551 4.94704 -2.29484 7.30387 5.17573 -0.829936 4.00223 2.80369 
1.70878 3.82205 1.03205 -1.19112 1.00187 1.21387 -0.26848 4.14833 2.65704 
-0.459167 0.53956 4.1396 -2.58196 3.65958 6.17637 -0.35931 2.27292 9.61035 
-1.19929 2.60819 5.72474 -1.53246 3.67736 6.58295 -2.15312 2.22045 9.54981 
-1.2937 0.972777 4.31787 -1.69673 2.98529 4.24445 -0.165388 4.02518 4.46949 
-1.04255 -0.07662 8.93097 -0.539341 1.11207 6.1693 -0.589898 -0.726432 5.41842 
-1.61889 -0.104801 4.30047 -0.399419 0.371391 2.7589 -1.39545 0.422856 0.838904 
-0.446165 0.795706 9.90844 -0.879763 2.7341 9.91445 -1.52972 3.85698 9.15326 
-2.37995 3.98281 8.02251 -0.703325 4.70475 9.00101 0.0285646 6.69897 8.61231 
0.502384 7.39559 7.76667 -0.577374 7.14411 8.07759 -1.94732 7.4951 9.69503 
-1.2005 7.62776 8.30193 -1.51138 8.57088 9.29935 -0.451709 8.14666 7.62038 
0.321712 9.31592 7.2958 0.756965 10.4653 5.77673 -1.8774 9.54641 10.3662 
-2.47525 11.3827 10.7254 1.84106 11.0811 5.0822 0.0957319 8.77855 8.7508 
-1.50967 9.11406 7.57631 0.448881 13.0776 7.20416 1.12394 12.4114 5.91225 
-1.15538 10.2267 8.06728 -1.50335 6.1681 10.0495 0.478098 5.7282 10.0066 
-2.08878 3.58956 -0.00894754 -1.92286 5.37327 -0.575676 -1.64662 4.79254 0.948659 
-2.08932 6.62145 0.160457 -1.91397 8.14629 3.5331 -1.40023 6.04483 2.32951 
-0.570393 5.01259 1.52732 -0.557095 6.2021 1.89268 -0.129832 6.31579 4.44786 
0.534379 6.98057 3.04384 1.33093 7.52653 4.63478 0.626908 7.30471 1.39334 
0.451076 7.41624 0.236051 1.43263 8.58364 1.55778 0.788591 9.37884 4.49538 
7.13379 15.0029 1.09565 -0.632821 9.82293 3.87733 0.629215 9.80302 1.01372 
-0.219806 10.1966 -0.368132 -0.751676 10.2291 2.22123 0.991478 9.43149 2.49098 
1.24649 9.24253 3.94014 -1.36729 6.01821 -1.61017 0.853213 4.43763 -0.338896 
-0.267311 9.41092 5.33795 1.20157 9.21668 5.934 -1.09169 8.39416 4.15439 
1.00367 9.52068 7.46204 -3.64757 8.12635 7.89518 -3.14593 7.61563 3.18057 
0.251164 5.2582 6.32516 -0.200838 8.40363 3.62312 -3.71466 6.44014 3.38062 
-0.73979 8.73714 6.60483 1.88549 8.10834 3.38025 0.38399 5.49565 6.51183 
-2.31426 8.953 6.90964 0.411344 9.74959 6.2595 -0.469219 8.24514 3.61942 
-1.05354 8.48799 5.00322 -1.87089 6.66909 3.73531 0.0733032 8.17703 6.6948 
-1.43444 6.20994 6.66078 0.124223 9.8238 3.83301 -4.25881 7.98582 5.86523 
-3.38958 7.91307 4.51422 -1.79779 3.93306 1.45246 -1.29975 3.35348 1.99899 
0.0526009 3.68563 1.35105 -0.965543 3.01108 0.993174 -0.0437015 3.09541 3.30022 
0.332118 3.81178 4.18764 3.62331 -6.09993 4.02594 -1.23417 1.57059 0.0597315 
-0.219077 1.10711 0.537433 0.420494 1.02016 2.2306 -1.31128 1.61021 2.28647 
-1.09039 1.13414 0.884845 -3.54478 2.42415 0.794976 -0.416708 0.117845 2.75493 
0.0146756 1.56566 2.9913 0.284225 2.10143 3.93756 1.62252 -0.684454 4.35683 
0.331565 -0.0422377 5.20611 0.911164 -1.44201 0.799504 0.19669 1.69973 0.433541 
-0.820813 2.11075 0.706346 -3.2315 4.81803 6.51649 -2.27593 4.10986 7.20611 
-0.577447 2.22383 6.92269 -1.05624 2.95426 7.65056 1.25643 0.0697005 8.37171 
-1.73076 3.4051 9.2319 -1.09438 2.79792 10.9628 -2.54547 2.06932 6.50818 
-2.5462 2.61736 7.55891 -0.723507 3.36649 5.23482 0.316579 1.12544 6.23873 
1.83316 1.58661 4.51012 -0.472918 4.08326 4.78646 -0.912477 1.90986 7.04428 
-4.33423 4.17184 11.2174 -3.09026 1.88922 11.0465 -1.38002 0.910043 8.7945 
-1.84024 1.11058 9.72244 -1.81127 2.55684 8.30858 -2.8086 3.34816 9.72724 
-2.8915 3.49801 8.32769 -1.12931 1.62497 5.26781 -3.28056 0.321785 5.51023 
0.13358 -0.477137 6.13289 -2.19803 1.58941 3.54321 -1.55032 2.46824 1.62049 
-1.13326 2.20317 5.24245 -2.44907 3.65687 5.05695 -4.36202 4.8992 5.73977 
-3.54506 4.87484 4.13242 -1.74273 4.17837 4.04917 -0.902625 3.7796 2.89645 
-0.960195 4.98427 3.45458 -0.274361 4.56478 5.53568 -1.36337 5.62924 4.77826 
-2.1181 4.97894 2.81321 1.21515 3.19522 7.8712 -0.717963 2.41364 3.50647 
-0.879303 1.17138 4.6347 10.735 -0.710905 4.01459 8.76822 -2.72045 0.702096 
5.71118 7.18944 0.65082 7.48938 8.06537 1.75321 10.9148 10.6245 0.269388 
8.67795 5.2506 8.6512 9.14528 9.0851 9.59931 9.49683 7.87542 6.80136 
8.19987 -2.21379 8.2891 8.38362 3.18462 10.2207 9.79431 3.53649 0.233816 
5.97363 3.85046 5.28562 5.72294 2.77162 3.57187 7.21566 1.44945 7.52232 
9.87532 -1.05922 10.9995 7.77046 -3.39602 4.85439 8.60768 -0.448099 4.08812 
9.70755 -2.11619 -2.00682 10.1984 2.46855 9.19497 12.4918 3.19225 11.7658 
9.63643 6.93587 9.58096 7.68947 7.80501 12.355 6.92979 7.81227 8.67251 
6.98058 6.8369 9.22309 9.31982 11.823 7.67777 10.7096 10.5051 6.08428 
8.88594 5.70658 -0.42622 11.2349 8.58117 -1.77714 8.73043 6.93202 3.36951 
9.10569 9.26956 1.67998 9.24518 9.82554 4.12138 9.15081 9.94706 3.04583 
7.91626 11.1309 4.71021 8.66815 13.6348 1.42002 8.7029 7.7754 4.90221 
6.06343 5.59599 3.02736 6.24855 4.05838 4.22007 7.05205 5.64011 6.83739 
11.3015 6.60052 6.43526 5.4014 3.13734 1.13101 9.62959 3.33124 1.6588 
8.60793 0.405477 -0.46693 9.9599 -0.0214239 2.03984 8.31443 -4.11704 2.38749 
6.59634 0.811355 9.80564 9.23202 6.59746 5.90605 8.43661 0.671984 5.78343 
7.95266 0.981239 5.30268 8.01966 1.01727 8.78096 9.77333 3.21411 5.36646 
6.55489 4.29722 3.50308 10.4466 2.29613 4.73561 8.93469 -1.41262 9.59737 
7.9898 -2.81549 6.75342 9.7467 -2.08097 3.97077 12.585 0.721364 4.01739 
8.53936 -2.1808 2.61492 8.49306 -2.18994 -1.0717 9.0573 5.15323 9.53629 
10.3485 5.24864 9.58638 11.7832 3.91801 9.12984 9.89128 3.12189 8.54531 
11.7713 4.24858 8.90781 10.4425 5.64953 9.30822 9.23415 6.64353 9.41009 
9.07014 6.19586 8.57949 9.2561 7.70324 10.035 8.36969 7.48993 8.61863 
8.04703 8.68075 8.54441 6.38255 6.23921 8.47671 8.00478 6.09882 8.10818 
8.82084 7.78198 8.32147 8.87796 10.0846 8.38012 11.2368 8.20732 8.97652 
10.078 9.33883 7.60494 10.0215 8.77871 6.76137 10.6676 10.9765 7.15547 
4.80925 11.5222 9.06115 8.68182 10.1955 8.08401 6.77109 9.82966 8.715 
10.2379 6.97175 11.6653 10.9095 5.9657 10.7552 9.73993 4.52289 1.03436 
10.5332 5.85293 0.540041 7.0639 6.39164 -0.645522 10.0367 7.5183 -0.70898 
[...]
CELL_DATA 2484
SCALARS scalars double
LOOKUP_TABLE default
-6.3878567666 -5.1537217089 -6.6197813412 -5.4217916154 -6.1376729241 -5.1881624287 7.4260132714 1.8979348253 -3.2605738788 
-5.2407934684 -4.4612511229 -2.3259298508 -2.5694962166 -3.5665543434 -3.0026267701 -2.7443843516 -5.3443110834 -5.2714645413 
-1.1971257237 -4.1744119947 -1.885976989 -4.9510042826 -4.9943413247 -1.2329593161 -1.3947855595 -2.0851463235 -0.49901243849 
-2.1797731398 -3.6224364477 7.0107031209 5.5224631344 6.4809487535 -2.8592254503 -3.2638416671 7.971357539 -3.5909160099 
6.8332656043 -8.1202432275 0.27490538667 -7.7074403333 -4.1503810761 2.451972698 0.27359157457 1.882150667 -4.1616349408 
-2.970340975 -6.3668657805 -5.7947377629 -2.8786384749 -4.2731234092 -5.0368712012 -2.9948092093 -3.2470627509 -1.2945321858 
0.40127368016 -0.60554695671 4.3791650669 -1.9929828323 3.1226757229 8.37554041 -1.8628670353 -9.5605074987 8.6863172365 
-3.8275990842 -9.5980252467 -1.0340579764 -2.0325208256 -2.7782336176 -1.043338496 -2.0057952998 -3.0686201191 -8.9453890961 
1.861186334 1.6727404792 3.5204363662 -0.68250816711 0.26369173324 -0.22823757729 2.1089457994 4.2262865586 -3.0500399524 
2.7518542909 5.3549064391 -3.9164118005 -5.5919838289 -8.2925827838 3.7609911158 6.377991533 3.8206369056 7.7396367212 
6.3736579978 -6.8174224397 -9.0650278133 -3.2596412043 -3.9138898296 -2.5693201622 3.0950900816 -0.77617902411 -0.25350811146 
-1.6920640863 3.5498917982 4.2591014597 -1.7922488114 -3.050151983 -0.059549442184 4.2976261243 -1.6862300619 1.2321142091 
4.746073824 9.6680903957 0.15166820829 2.6216410221 8.906998256 -5.7296478239 4.4460981841 7.6488758111 4.062387532 
5.3596478459 2.834551186 5.0822074165 4.600028083 6.0744480152 8.6828754129 7.5018093654 7.8621151918 -6.3174364432 
-6.0563649312 -6.2307521434 -9.3708151763 -4.6266997238 -9.9679069266 -5.8795935107 -9.2904175929 -3.2082435347 -3.8674476942 
-3.8159892867 -9.3443876872 -9.2450485542 -9.2410707283 -9.454778746 -9.0654580763 -9.1803198882 -7.1196988441 -3.4682299978 
-3.9787035357 -5.2474507143 4.6992351242 -0.68712209975 -6.5337516261 3.7735929319 -2.9113372123 -8.7502885529 -9.1017641928 
-9.1105813338 3.4805657418 0.43311084864 -0.29751324629 7.1196292745 -8.3831435549 1.2220176634 -4.5020397597 -0.58192364278 
-1.1736905354 -8.4165614513 -6.5625990074 0.55846465428 2.3149209145 -9.7585280358 -9.9331161155 -9.9685557795 -9.1575146845 
8.6455828939 9.6201987475 8.4320030044 -9.0463675872 9.5229356992 9.2596241341 9.0472756424 9.5007298907 -9.7962320575 
-9.6442061894 -9.66382894 -8.6869232624 5.4058139345 4.2794435563 -8.7178751299 -2.0135613809 5.1076270648 8.672519731 
5.6265717699 9.8545145132 -2.4521685721 -5.2596624776 2.5165705343 8.128632397 -2.8377515714 -2.1179096442 2.6043040572 
-9.3893536227 -9.5586109067 -9.1636823292 -9.1294986779 4.0320545644 0.07097507531 6.1013736428 5.9269012239 3.6657392285 
4.4370883911 5.9248995074 4.7826896613 6.6163716726 3.237578761 4.3528375319 3.1992284605 0.02109785115 3.6981715951 
-2.8950391992 1.6670069101 -9.1421626678 -8.9132413682 9.7632441461 -8.7350008622 -8.0057554972 9.6157889691 9.03017385 
9.3840359972 9.6234759182 -8.4696844185 -9.3442851081 -7.8721009298 -1.1976327595 -1.4307049579 -1.4058212919 -5.2168256004 
4.2539244758 0.30420721646 -6.7120171523 3.5845425157 -3.2820749318 -3.2739127896 3.1535732491 -2.70780453 -9.5714451631 
-2.7288772993 -9.4763048352 -9.5379420601 -3.6690760533 -8.8154827868 -7.164920342 -8.7498709385 -8.4923660367 7.9099245527 
-7.3264510385 7.4505922769 -9.9571069766 -0.53362350838 0.65230958989 8.4603798122 -4.2248173769 -0.43010033228 -7.2437794242 
-8.477691447 -0.64378958509 3.2458346596 3.4430911447 3.0974394504 -8.6212776497 9.833829327 5.5018022891 8.9169946805 
-0.35287577107 -8.266869908 -0.43755436753 2.0399748085 -7.7300362637 -1.3363349635 6.5177139369 6.1568897404 -5.3824477129 
-3.6978887855 1.4741857891 4.5520313669 4.0165460984 -2.9179221832 -4.4624293378 -3.2339445581 -3.4263498714 2.4245141973 
-2.1766100483 1.815384655 5.4645803858 -5.3374773352 -4.6061173119 -8.5001845461 -7.1624210108 -5.5362949719 -6.1401933774 
-6.0867301618 3.941823892 -7.76029555 2.7005531219 3.9268237247 -7.766049911 3.5865364013 -5.598481817 -7.3749759983 
7.9931847757 3.256187817 -2.6595073899 -6.4112809589 6.71184919 -1.3249588091 -2.101378506 -5.4679585191 -4.0052835981 
-1.4750759854 -1.2869876734 -1.1716735532 -0.87378173112 0.19339605978 2.7875494104 3.4414457445 -2.5464474239 -3.6728831552 
-3.5850736281 -4.7034689013 -3.0492234837 -3.4433429416 -6.8724908815 -3.461288666 -2.7163520156 -3.0463131949 -1.5916267722 
-9.7744474796 0.045474317656 -3.2954659007 -3.9377991444 -3.4397291691 -3.4264100137 9.019932538 9.0912008407 9.1748001054 
-2.0661493861 6.7840286736 8.2465193272 6.6073882047 9.1186164414 -6.4394553939 -4.3014322943 -7.5294654591 6.1996937878 
-3.7119378952 -6.5102108802 -5.3914865091 -5.7486134304 3.6207817286 8.0955979358 3.9696747824 -8.5727117138 8.6553913188 
7.2383305837 9.1665936174 8.1977272088 -7.3461654419 -3.7899937791 -8.3534838375 -5.5327303221 -8.2256337781 -6.7462443561 
-6.3193540379 -4.9464569179 6.3897722244 5.6129993557 5.1766549155 -1.6464926727 5.5386585301 -1.3044800464 -1.2929034959 
5.4777848719 -6.9945674123 -8.262556692 -7.5228272446 7.0035449666 -2.462493967 -4.5048641341 3.3594839716 -6.1033924953 
-5.5121609809 -3.9105624804 -2.2485031437 -7.2211051686 -6.2501990292 1.6126189125 -7.3415145866 -5.0459138458 -5.4179164116 
-6.0398183043 -9.0300999353 -7.8083498948 -5.4998496753 -0.71729339695 -2.9647278025 0.62869668074 6.3919621058 5.1352896402 
0.57246392903 -3.5824717107 2.4137145334 -0.64330330549 -3.5493380982 5.5177642875 2.0774643736 0.80292767419 3.9541526833 
5.0077480401 3.2882370077 3.2412596799 3.4209208949 5.9810407387 6.335511331 8.5463446065 7.7137781463 8.0632822535 
6.135562184 3.0699183691 0.47164101742 5.3602799566 6.0401573932 5.9722740849 5.4685547279 4.209564309 4.2828498638 
1.972376257 5.1302791707 5.5790404083 -3.9310904028 2.429215397 8.6182818464 -0.28954892991 -1.3786424421 -3.4407555717 
-9.3096348264 -5.1821917662 -1.6668298674 1.1731475712 -4.9005210487 -1.464967487 -9.070291648 -5.9403255271 -7.4220329037 
3.8721729224 4.894632693 -8.8061359106 -6.9667789007 6.0181318838 -1.5791585221 -0.7679468029 1.8831566132 9.2778849292 
-1.8185702831 -4.4475302461 -2.1726619732 1.2652386805 -9.2337832462 3.7649283694 0.51284094697 -3.5992287197 2.6772471205 
-3.6061438983 0.88784240476 2.668722343 2.9626711035 0.91590802021 -4.7632764492 0.99607645276 -3.0606352569 -3.0198366594 
0.9856275933 -2.9447242418 0.52674128595 0.28407358186 1.6098291303 0.85824641966 1.6935906301 2.3545371682 -4.9827335872 
1.0670059664 1.1227991805 1.7497302416 0.11264169143 -4.7432614029 -0.244194839 0.045992859704 1.8030329872 1.2630705619 
1.3830635392 -1.1547697124 5.4191054129 -1.482839789 5.4884329476 4.543417747 4.8360900363 6.9489486263 -5.6826142805 
4.6501258191 5.846019424 6.6990161281 2.0473089277 -1.3904801417 -6.6799531096 5.3758681662 4.8187843029 5.1306955127 
1.8425593046 -2.1614488841 7.4988657499 2.6907787426 -0.23250950267 4.5824014879 7.4960628321 4.2734769908 -6.190955321 
-7.3134358057 -3.9965837746 -6.4022898409 -6.7674057801 -2.0652862396 -5.4770471714 2.7951359087 1.732928571 -7.9447877952 
5.11216292 4.2816376659 5.1292044613 2.2191508386 -6.7092333115 -3.6849690158 -3.9670682694 1.9394204798 -4.3646505839 
2.1880739647 4.6433330012 -0.62881593675 3.5699424334 -1.8465910596 0.10272358794 2.1767747139 7.6556039214 7.6248834499 
7.318547648 5.1295533636 4.0942109271 4.5097097053 -2.0972903561 -1.5406283818 2.3452239696 -2.9228463484 7.3966049711 
3.1416962097 4.5105890196 -1.8252199537 2.197162307 -2.496388908 -4.2361991508 3.0891984636 -1.3144155203 3.5393221725 
3.4236592307 -7.6280873528 -7.4027844035 5.5772550132 -4.9012963455 -8.6356118408 -8.1467209716 -8.0211079293 -8.1396006902 
-3.2135755263 -8.8056810806 -1.5835191 4.4666877084 0.39359139371 -0.95588073702 -4.8029962944 -1.4743489877 -0.27851755714 
-5.5437227928 -4.000399866 -3.1032396375 -3.226186252 -7.658605622 -4.9786612604 -5.3184133163 -5.2311597093 -1.3176773952 
-5.8026010797 -4.0872941491 4.6851726673 -3.2028073497 6.2352144133 4.839315566 -4.1362305268 -5.8444227635 -5.9688706716 
-4.5082476229 7.5396726098 -4.8704370098 9.3662514902 4.0688136395 -5.8870718581 7.4643339752 -3.1456248121 -7.4380733021 
-3.5194084016 -9.1911686699 8.4886643542 8.843182691 3.8229207869 8.5690569531 8.1003589555 8.0124197515 -3.7345189932 
-4.944015085 -5.32750234 -4.8544338086 7.576261521 7.2502260475 8.8822716372 7.1212976002 9.0955150638 -7.8977811086 
-7.820553409 -7.6424628623 -8.9639594769 -3.8034156467 -5.1968077418 -5.2520324085 -5.8150079794 -5.737047831 -6.2902031676 
-6.0738692435 -4.8959901822 -7.6747813563 -9.0092054789 -8.344703636 -1.3581887602 3.5622861888 1.8187539954 0.65610693916 
7.1845680693 -5.7804822919 4.3284909579 -2.2899447222 3.9037652256 7.0230629107 9.8434833883 4.4737030316 5.6104550109 
6.1647532364 7.1025034911 6.1504370431 -6.3562166496 1.0694522729 -5.1152444293 -4.5070716412 -3.6691375362 3.0005493144 
2.2551396154 1.6397201581 -2.6605597122 -4.3188205667 9.0254096192 1.335738662 -4.7617836935 -4.3073838776 -2.0528884011 
-1.3187702889 -6.1445734448 -1.8719781645 5.6803749423 2.0441885035 -1.6112898357 -0.013601972462 1.0281373561 -1.3855958565 
-0.44087820886 -2.1266189386 -3.7898265705 -5.3613498343 1.0797049339 -3.1727921715 -4.4783832126 -2.8207609083 -3.4832983315 
7.7421055841 5.8801310322 7.4185635335 3.6730287647 1.2941035343 -4.2281288298 0.89311432921 1.9469086169 -0.1993421077 
-1.5489692821 -1.217612578 -0.15717076077 -1.5232631331 -5.5250906273 -1.0965656763 -3.6147623104 -0.58311050894 2.8833028199 
-0.05760872732 -1.8624946559 3.5775297108 -3.7094725221 1.8500767174 3.1142409879 -2.1992345504 -3.3949862248 3.1292889153 
6.1999890227 -3.229025373 -1.659932778 7.3304832406 -6.5638351951 -2.1114465286 5.4055404861 -3.712508116 -1.3750710041 
4.0819044977 4.0693994756 4.0634962008 1.7759992528 -0.2488343914 1.0188975172 -6.819782518 8.4396603286 -4.2649497052 
0.71832451578 -3.0787557257 0.53934044336 2.2474226639 0.42717673486 0.66062338082 -0.059914947167 -0.3229850862 2.5721480231 
0.090431711476 -0.44928267122 -1.3313682224 -1.4505344116 -0.84490534078 -3.9980712587 7.364112976 -2.5355829721 5.8907436358 
-1.3815857584 2.7078308499 -2.34749303 -7.3346362172 -3.0132862074 -1.7134062003 -1.8240272695 -2.9512925997 0.10435515436 
-4.0959779296 4.462442712 -2.8548665723 -1.9594033903 0.75992016507 -2.1221908826 3.1004768497 2.6017696466 -5.0822335126 
-8.1776165564 -6.6307296973 -5.676769164 -0.9516675421 -2.0353926012 1.8807570958 3.9466759859 -8.5602702605 -8.6412886237 
-8.2799291017 -3.3954765071 -1.0898041334 -4.5410857949 -2.8676654448 -9.405617135 -0.37232035487 8.3602878666 -0.53378399387 
-4.7853319446 -8.9922220906 -3.2989978948 -4.0029689565 -9.1117712391 9.5681527931 9.177126593 9.618069863 -0.75876894954 
-6.368078148 -6.8611416707 -6.2833360946 2.7429352033 -3.1137649868 -4.7627600793 -2.8957902981 -2.3054315627 8.3438035869 
9.5778245177 8.8733165227 -7.4703760283 -0.81979713291 -7.3543166972 -6.8778065751 4.4319328456 -9.899413228 -6.9939084463 
-6.9972422129 8.7798052522 -3.5431602891 5.4674856457 2.2585635167 -3.6330733218 8.2307533102 4.0629031617 -3.8477712352 
-1.9060163221 -1.6256433819 -5.6527517261 -4.3548143261 -1.1948779578 -0.40985434108 -2.6918532366 -3.0198481162 -2.9896330919 
-0.38271344818 -5.7323911655 -6.9199029908 -0.37913725798 0.62742936218 3.3707497539 0.79397081214 -2.9513724719 -0.014165424944 
-5.8257592235 -0.040861784675 2.4261939158 -7.1478816898 -3.885478981 -2.5041713734 -0.29975193736 -8.9338859327 -1.02530857 
3.6885784678 -10 -10 -10 -10 -9.6631883414 1.0103269196 -7.7629377799 -7.3741384124 
-10 -10 -10 -10 -10 -10 -10 -10 -10 
-10 -10 -10 -10 -10 -10 -10 -9.9854634998 -10 
-9.5795311725 -9.9667586601 -1.3032359416 -0.060225011328 -9.8461188164 -10 -5.4631741348 -6.3099455909 -5.5561058416 
-7.5830588961 -8.8737805291 7.2802539149 7.2942446901 -4.7145408611 -0.97817129042 -0.060225011328 -4.0406750538 -10 
-10 -10 -10 -10 -10 -10 -10 -10 -0.59734345818 
-10 -9.7773275572 -10 -8.1949556788 -10 -10 -10 -10 -7.7795978891 
-7.8808941982 -7.9467389471 -10 -7.7106389796 -9.9346085562 -9.6291277528 -10 -9.4835363196 -9.9465415663 
-10 -10 -10 -10 -6.1658344535 -9.9947245323 -9.9962617352 -10 -9.9473213365 
-10 -10 -10 -10 -10 -10 -10 -10 -10 
-10 -10 -10 -10 -10 -10 -10 -10 -0.048510694963 
-10 -10 -6.7412888657 -2.8636621433 -2.2117678507 -2.1784652818 -4.8593624982 -3.4147616149 -7.990329143 
-6.5226016664 -2.8679297897 -3.6426652987 -2.9031439857 -1.0952316271 -0.99651467348 -10 -2.2559342959 -10 
-10 -10 -10 -10 -10 -10 -10 -10 -10 
-10 -10 -9.5438857128 -9.5207602983 -6.0132473907 -10 -10 -10 -10 
-6.5504808324 -10 -5.1631620575 -8.2792832397 -9.4954025389 -1.7935599713 -2.346860469 -6.7314185995 -3.2039017769 
-10 -10 -10 -6.284476195 -10 -10 -10 -10 -3.4486349874 
-1.5086550907 -1.4776661313 -10 -10 -10 -10 -10 -10 -10 
-10 -10 -10 -10 -10 -10 -10 -10 -10 
-10 -10 -10 -10 -10 -10 -10 -10 -10 
-10 -10 -10 -10 -10 -10 -10 -10 -10 
-10 -10 -10 -10 -10 -10 -10 -10 -10 
-10 -10 -10 -10 -10 -10 -10 -10 -10 
-10 -10 -10 -10 -10 -10 -10 -10 -10 
-10 -10 -10 -9.0916443224 -10 -9.7648122724 -9.6583630287 -1.5326519253 -6.2317833342 
-5.8186747551 -2.2422847632 -10 -9.6792266809 -10 -6.6831043996 -9.8560120971 -3.6299349183 -1.3197022914 
-2.0311626121 -4.7304173873 -2.5006270093 -9.9152116833 -9.4435618766 -5.0282423385 -8.5205755176 -5.81401394 -9.4343144742 
-9.944560075 -2.3964766579 -3.3245416039 -5.9943902364 -6.4520657855 -5.1693530444 -0.0509045946 -1.742760383 -4.9417472438 
-10 -10 -10 -10 -10 -10 -10 -10 -10 
-4.7835124112 -10 -10 -10 -10 -10 -10 -10 -10 
-10 -9.0219135798 -10 -1.7695497518 -9.0787219043 -10 -10 -10 -10 
-10 -10 -10 -10 -10 -4.9343963236 -2.8021418529 -3.2573325595 -4.7969632759 
-8.5417742357 -3.1175454368 -4.2379972796 -3.6183665615 -5.0508095677 -10 -4.9814187179 -4.6393993573 -10 
-9.538208199 -9.9988471837 -4.9136963888 -5.1595505374 -6.2447846113 -5.0347386782 -3.4544549762 -5.8652195162 -10 
-3.1530283661 -6.7198619163 -10 -10 -10 -10 -2.0505098134 -10 -10 
-10 -10 -10 -10 -10 -10 -10 -10 -5.6919819508 
-10 -6.534416539 -6.3941779176 -10 -10 -10 -10 -10 -10 
-10 -10 -10 -10 -10 -10 -10 -10 -10 
-10 -10 -10 -10 -10 -10 -10 -10 -10 
-10 -10 -10 -10 -10 -10 -10 -10 -10 
-10 -10 -10 -10 -10 -10 -10 -10 -10 
-10 -10 -10 -10 -10 -10 -10 -10 -10 
-10 -10 -10 -10 -10 -10 -10 -10 -10 
-1.6349626952 -1.9779748922 -2.291485094 -2.1226540626 -1.7154556945 -1.3548280288 -2.2922189566 -0.32477149365 -0.099640562629 
-2.4454141568 -0.31739178133 -4.2121457967 -3.0858555744 -3.1096640587 -3.2757644098 -2.2861756186 -2.1348596917 -1.395813432 
-1.9023484305 -2.132260696 2.3103963014 -2.1064422298 -0.35322909537 -6.4896153884 -5.633682538 -7.1291128473 -3.5332347442 
4.3955856515 -5.7755939148 7.8548613389 -6.8691665648 -6.8683983656 -0.90155806107 3.5745586904 -2.6064882276 -3.245726495 
-7.7640555557 5.5137713097 0.62969128528 -7.6629977287 8.6319401638 -0.76795127258 9.4900169699 9.4734771492 -6.3847128059 
6.6886528993 7.8382975712 7.2967633795 8.9836825804 5.2091867015 5.8646000848 -5.2942453091 -1.7299299135 -2.4566096798 
-2.8982545045 -1.6472415577 2.8588632895 -1.5023218782 2.6816207432 8.3412607571 9.1225979504 9.7386326262 9.1546268918 
-2.6561745269 9.9473096065 9.9929019962 -2.9180413737 -2.4410667632 7.3214700852 -1.3015489785 -2.3844077296 8.2060420746 
6.9735159378 8.0933930735 -0.98046379328 9.6509640474 -0.91727335377 -2.123673685 9.3000240396 -1.2556866841 8.9638762382 
8.3143827908 -2.7176175206 7.558105469 -2.9292733706 5.5489260845 -7.7507171806 5.1760487902 5.883118248 -3.0409375893 
0.35486293053 -4.2510814056 7.3141196526 -2.8530128166 -2.908601054 -4.1010324611 -4.0034017538 4.9468176343 -6.364271508 
-3.328036304 2.1684943279 2.4218494877 2.1815368994 5.5965549108 -0.11223808664 5.3721840104 -3.9201931933 5.4683966907 
-2.6597562129 -5.3594918079 0.22888212694 -4.770959926 8.4915524567 7.9284346781 9.2027351051 8.7564152889 3.8974670079 
9.5768892867 5.1433265969 5.5079649995 9.1641422024 3.9453500868 8.44951746 9.1876660795 9.1961310037 9.8604103497 
8.812579817 8.9973839159 -9.9728782878 6.4415733462 9.9950902955 9.916624232 0.66857644326 4.6644114641 5.5880644158 
0.035842822736 2.4851912836 1.572674009 4.3339991608 1.4755108456 2.0312117912 3.9181130586 1.7830735128 5.6756028011 
9.3811979783 7.1135961513 7.9569112628 9.0382771048 8.098599279 8.2153672398 8.7942301413 7.9755781601 3.8603161718 
8.0504436049 3.7096760029 3.6961366695 -6.5172650089 1.650289929 5.2919543461 2.5934643487 -1.5002396814 5.8124684449 
0.61011452059 4.0882252123 -6.1134775576 4.1423070999 4.1835160771 -9.9581153506 9.9663211515 -9.9563665591 -9.9629643975 
6.934598029 8.9264076732 9.2234166725 9.4617755282 9.4575770974 8.2546860349 8.7525086872 -8.9476000793 -9.5070452131 
-9.9836911836 -8.229050904 -9.7036612916 -5.8740108866 -9.6914392652 -8.2499839596 -6.9428451305 -2.6676332843 -5.5571945386 
-6.0350998957 -6.9552515839 2.4841429847 7.4945879225 2.7769771762 -5.8234969975 -7.0610516226 -4.8994696404 -7.253928122 
6.5030421119 -1.8177062745 7.2539660568 7.037457004 -5.1862744341 6.9398446778 -3.3045863618 -2.7355992236 2.368915146 
-2.9598013556 -7.3989807741 -1.7044402576 -2.0781029501 -1.8421886356 -2.637534643 -2.580408298 5.4825277199 -3.2469347415 
-3.2525290879 -3.5586095588 -1.7123489832 8.2334185157 8.950052827 8.5552642369 -5.9038579517 8.8299809778 6.587035052 
7.5242776278 7.1000695032 -3.6628472869 -2.7876963837 -2.9656242805 1.6554787667 -4.0069245148 -1.5741542655 -5.7108321689 
-4.959879101 0.68512659913 3.8750097794 1.8531913644 8.8994778485 8.4391989621 9.7044037394 8.9101545808 -4.8149388926 
-7.2778364794 -5.8607332389 -7.6337879775 -2.6658583401 4.3802514964 2.3623401634 2.025280117 9.3566933925 -4.6773383312 
-2.2058146648 -1.9802839528 5.0843719079 2.2987903596 7.6879419759 -3.342314208 4.8146687558 6.0515271113 6.8740416824 
6.7748091522 7.4333627201 2.1927546302 -1.5006559471 -2.0113078166 6.8358347517 -3.5561445752 -1.8218485631 -2.9564872835 
-2.0442533783 7.3463635431 6.0098542279 6.0285935505 -3.0031539258 7.075884738 9.3908745037 -0.86948985934 6.4147125305 
8.4365222883 7.6359769748 6.6978937063 3.8754756446 4.27545503 2.5168077875 3.9987771455 9.2821069719 8.2404730154 
7.4503083749 7.4833868181 -6.057571726 -3.8990496715 -5.4421772815 -4.0972432973 7.6040943027 4.8767448472 9.0536132676 
6.8283427056 -5.9589954492 9.4121710389 -3.4602770837 -6.1598825252 9.4412228295 -5.6571345813 -5.4668660514 -5.572325 
6.5776642866 8.6016314215 -1.1679354266 7.0705676583 6.561741077 -2.1674180613 -1.4621978548 -1.8275593286 3.4902714687 
-2.6777405989 -1.9222927544 -1.9780777394 -0.28612920526 3.5105998279 6.5768560077 5.0848484101 -5.6740640211 3.1932209599 
-1.7638226226 1.4872863541 -0.17521179636 -5.0564064578 -2.1925462954 -8.8578359836 -2.778435297 3.3009726358 4.7144601289 
-2.7557958782 -3.0194792966 6.5830557377 -3.3822900519 -5.7961482117 5.3566379602 -6.1000587146 9.3912387122 8.3705793181 
7.7597747662 8.2669750025 5.1666522894 7.8524419608 8.2095060654 3.2880351485 5.5192112001 5.374968624 -2.1086643225 
7.5646120004 6.8847446797 7.6729516215 7.0450648915 7.4475127411 8.2275427177 7.3271884196 8.2462933864 8.2642391188 
6.1318292972 7.3938804365 7.8733759776 7.1755738449 7.8607813513 7.1060756032 -2.1486128025 7.9215203879 5.7092619803 
2.5517823436 -4.4555597931 -5.645247074 -2.4780038702 -4.6111489779 6.7947309909 6.3134879528 6.3083030059 5.2493091352 
6.2849390518 7.1126853016 7.793392095 7.8653474478 8.7788087949 9.0581788972 9.0142155703 9.0194468249 6.7816272941 
6.366200911 8.9510044989 -2.3164771218 -1.6551546876 -4.4720820812 -2.4862911337 -2.2036490612 7.3281502478 8.0796716229 