# vtk DataFile Version 5.1
vtk output
ASCII
DATASET POLYDATA
POINTS 1244 float
-0.9085 -2.29031 0.231273 -0.770165 2.12741 13.7572 -3.59758 7.6766 -4.39201 
-5.87413 20.7749 12.4038 10.7507 -4.70488 -5.4087 12.8104 -3.34472 13.5626 
13.0607 14.234 -3.16687 17.7355 6.00127 9.7905 -1.62132 -0.321738 1.46532 
-0.693657 1.77694 3.04885 -0.902141 0.169309 5.28908 -0.82693 -1.65303 5.37864 
0.795999 -3.24246 4.51188 -0.193367 -4.96167 4.42343 -1.22004 -1.4171 5.32253 
-1.53265 -0.877128 7.2846 -1.44172 0.487906 9.66924 -2.90217 -0.978873 -0.833551 
-2.39026 1.57428 -1.99833 -2.93891 3.5801 -2.40089 -3.64159 6.1181 -2.90134 
-4.91357 11.669 -4.34915 -1.59219 6.8852 2.23558 -3.74238 7.74763 -1.75058 
-6.75213 9.50603 -5.41239 -0.72953 9.36285 -0.686831 -7.6335 8.92164 -1.9495 
-8.22845 9.2535 -0.420379 -7.89908 10.5858 3.98271 -6.81648 10.1816 5.18398 
-1.4184 9.58945 4.63091 -3.48636 9.93999 4.31924 -4.65082 9.61973 8.7233 
-4.29189 11.6209 9.61164 -5.3228 14.724 12.1562 -1.59762 -0.480608 11.5137 
-3.20789 1.9373 12.9213 -4.82147 4.11399 14.0829 -7.15164 6.94634 16.0766 
-4.31876 1.74796 9.64794 -8.29038 0.870394 14.144 -6.59279 5.28679 13.3271 
-5.9735 7.30688 12.9202 -7.81764 10.5865 14.3818 11.2595 -7.97841 -3.70541 
14.7022 -7.877 1.25978 12.4892 -3.8903 2.02847 11.3016 -1.47841 2.34918 
14.5108 -7.70296 1.63476 12.9308 -7.94846 4.98858 12.1663 -7.44983 6.56014 
12.1161 -6.97577 8.08598 12.4348 -6.91173 10.5543 11.8734 -0.967545 -9.85464 
9.6506 1.98958 -3.78261 10.7022 2.59671 -4.5676 12.611 3.49359 -4.96746 
11.2246 6.92645 -1.42764 12.8086 5.9498 -1.77074 12.2025 7.70669 -0.636255 
12.9737 9.55306 -0.259298 11.3303 12.5669 0.897609 10.5588 22.4703 -0.982626 
7.7937 16.9614 1.20854 6.30075 14.1684 -0.788538 9.10818 11.6279 2.62252 
10.9208 11.4684 4.33134 11.4988 14.4441 4.91514 9.89426 17.467 4.78002 
-0.811567 15.2112 7.33151 5.74047 -0.95153 9.09447 12.4052 1.68206 14.7524 
11.8144 4.2653 15.9062 10.7678 6.40477 13.7837 9.97582 7.51144 12.1659 
14.1403 2.36557 13.3335 14.8192 5.85962 14.5952 13.8883 8.76614 13.501 
12.1562 11.5868 11.2756 7.40466 18.4808 7.23603 0.23069 -2.12062 -0.235518 
1.35523 -1.4583 -0.953973 2.31553 -2.24625 -2.05837 3.40593 -0.302154 -2.57536 
4.03816 -0.712605 -6.1806 5.54639 -0.221748 -4.03186 7.85043 1.51299 -3.35169 
8.51709 1.30142 -1.86229 9.30578 0.318509 -4.39794 0.562225 3.12664 15.5381 
2.44953 -2.329 11.9096 3.10382 -1.14363 13.0783 3.14034 0.0602823 13.7335 
3.50784 -0.374125 11.3832 3.56933 -3.87053 13.4735 6.32605 -0.865263 10.4763 
6.2829 1.17714 11.5715 11.2139 -0.738502 11.2784 -1.9707 13.901 -10.2598 
1.78448 9.92114 -4.73049 3.4416 11.8135 -2.38858 5.94852 15.3154 -2.33842 
3.09901 19.4833 -5.88267 4.6777 13.9967 -3.61166 7.46593 10.3878 -2.68021 
11.8028 13.5203 -5.48206 14.9859 16.6905 -7.18392 0.170376 12.9714 10.3099 
1.84187 13.5779 9.63742 4.60076 12.6153 8.90945 5.66303 12.1198 8.58625 
7.86247 14.0157 8.70746 4.96153 12.312 9.77827 7.47777 11.5497 8.18923 
8.33607 10.7113 7.78402 11.2451 9.43351 8.50866 0.605677 -1.31614 6.16269 
-0.976172 3.09032 2.22565 -3.65703 6.05704 2.43748 -0.486033 8.21825 1.58898 
-0.669225 7.26282 -1.38254 -3.64057 4.66646 6.85665 -5.51897 9.31657 11.2331 
3.35501 6.90636 16.8299 -1.90853 0.894724 7.51606 -3.46396 0.180009 17.4067 
-3.66682 2.99109 -1.57967 0.20002 6.59951 3.40765 -2.72705 1.61937 -0.29993 
0.750508 -1.87305 9.28424 -1.91856 -0.162378 10.5177 -0.758703 0.377487 2.90715 
-0.696012 -1.00719 7.30416 -2.15299 -0.623433 0.293017 -3.75519 -0.51255 7.49949 
-4.1847 3.14619 10.3099 -4.1948 6.57404 9.63582 -1.32105 8.01005 7.04873 
-1.14815 11.0015 8.16112 -3.48405 13.1282 9.87122 -1.36111 12.2765 5.72001 
-0.916267 9.60243 6.01119 -3.93578 4.02657 -0.0865459 -6.42069 12.0996 6.25691 
3.82242 2.3072 8.20332 -0.062838 2.81047 -2.22479 1.45249 7.84949 2.56494 
-1.30543 9.4016 4.10743 -4.58633 10.027 2.42219 -0.313131 10.1734 1.08223 
-2.48061 6.32732 6.01695 -3.98555 7.39161 -0.443383 -5.17025 8.14587 2.75539 
-1.73724 10.8132 0.688835 -2.70896 6.7403 2.57779 -0.419023 3.93348 2.35779 
0.195882 1.86443 1.87023 -3.29781 7.55968 0.00220614 -1.14458 4.50389 2.46749 
-1.57851 -1.06051 2.99027 -2.33173 4.05701 6.11034 -1.46408 2.13817 11.0032 
-2.4084 4.13082 3.58937 -3.64153 8.32619 5.81423 -3.20547 3.18818 9.55437 
-1.20854 -1.99933 1.97648 -2.46737 3.01675 4.15198 0.303272 4.79888 4.34146 
-1.75135 0.44896 9.09072 -1.60204 1.12553 4.87062 0.236668 -2.6796 -0.280594 
0.584218 -6.4995 9.56063 -0.181586 2.94192 5.70258 -1.99785 1.7207 0.842974 
-3.76659 -1.44524 11.4933 -4.14392 -0.153888 10.7103 -4.63985 1.29738 7.98958 
-3.97489 2.15579 5.76927 -4.23324 3.15226 8.15336 -3.35899 5.17841 8.60293 
-2.4774 6.45376 6.80687 -3.03522 7.47131 8.06766 -4.72999 7.90394 10.4968 
-3.39919 8.82832 8.9108 -3.65937 10.359 9.59093 -1.06342 9.9198 7.85914 
-0.609915 9.98285 6.86993 0.847677 11.2247 5.54942 -4.61729 11.2615 10.85 
-6.13484 12.6924 12.9812 3.87878 11.4987 1.56135 2.46297 8.9229 9.3603 
-3.10135 9.62919 7.17509 -1.15126 14.7594 5.94527 0.578668 13.8788 4.37687 
-2.10578 12.1331 8.57447 -5.02733 5.81872 12.0496 -3.91691 4.55883 10.6429 
-3.44801 3.60752 -0.687381 -4.2325 6.61999 -1.54696 -3.74968 4.67113 0.816632 
-4.29583 7.48436 -0.000701665 -5.09485 9.33023 3.22891 1.67381 -0.525784 1.15218 
1.86058 2.06766 1.99232 2.53749 3.80882 3.79229 2.595 7.23288 8.15497 
2.47412 6.03418 4.52466 2.1083 8.3104 4.97304 0.934854 4.99636 0.290074 
-0.858128 5.36124 -2.49227 0.626304 7.54457 0.180439 0.823908 8.48344 3.47163 
8.34681 15.2611 2.84804 -0.649105 9.2237 3.11013 0.103876 9.54379 0.542002 
-1.38015 9.70109 0.157642 -0.751676 10.2291 2.22123 0.993692 10.3778 2.17233 
1.4059 10.8553 3.53153 -0.964394 2.31698 -4.21335 3.7611 0.269033 4.55147 
-0.267311 9.41092 5.33795 1.7258 8.35811 5.0733 -2.61486 6.36605 3.22412 
2.44194 8.785 7.27366 -2.9922 6.07788 10.9005 -4.42058 6.27413 0.779606 
2.99969 5.20688 7.76933 0.47799 8.19453 0.647186 -2.79769 6.1691 2.09732 
0.461806 7.37534 2.96753 3.17843 10.378 1.32866 2.54729 3.19078 7.92958 
-2.31426 8.953 6.90964 -1.30812 10.5045 3.8733 -2.39168 8.89935 -0.939517 
-2.5169 8.85054 1.73319 -3.11425 7.08877 0.38059 -2.07283 8.24356 4.51626 
-3.19177 6.40619 5.19895 -1.85468 11.4988 -3.18468 -6.69848 4.28543 7.94271 
-8.97853 3.25378 -0.423263 -2.42996 5.05718 1.48532 -1.24677 3.03395 1.7864 
-0.979072 2.81118 1.66144 -1.16653 1.62245 0.71633 0.727176 3.15601 2.6926 
2.15998 3.39666 3.72777 4.75474 -6.11757 1.94488 -3.31245 1.74068 -0.99628 
-3.98177 0.389389 -1.57157 -3.14083 1.23803 -0.499212 -1.42099 5.46983 1.08337 
-2.96075 -0.578461 -1.33129 -4.21931 -3.02562 -5.33971 -1.81263 -3.14696 2.38919 
-0.019065 4.72123 4.12816 -0.100288 6.8434 7.40951 -0.391245 -2.08995 9.41963 
0.506512 -0.161691 10.6055 2.06283 -2.46198 1.49954 0.367619 -0.199244 1.17153 
-1.32231 -1.02332 -0.230444 -3.25049 5.04668 5.42751 -3.10738 3.88489 7.67788 
-1.14473 2.0556 7.03545 -1.22045 2.7526 7.65463 -0.444576 0.935521 9.41726 
-2.61327 3.15771 9.43743 -2.83256 2.3019 13.3981 -0.85175 1.38037 6.68208 
-1.64746 3.89985 7.47946 -2.99071 6.20529 4.48953 -0.606037 0.188586 0.647175 
-2.05951 5.70848 -1.15188 -2.94633 7.57527 2.63332 -2.15979 2.71077 6.25252 
-4.58047 5.34405 13.0925 -3.07862 2.34509 11.083 -2.49088 1.80584 8.56712 
-2.33648 0.944012 10.2317 -3.06164 3.92502 7.84508 -4.58104 7.21649 11.2014 
-4.40749 9.13793 8.83545 -1.69568 1.62509 3.42861 -0.436602 -0.206029 5.59571 
0.989613 -3.35069 7.60803 -2.9061 -0.338749 -1.59035 -2.97275 2.29095 -1.77854 
-1.68229 1.95719 5.39546 -2.32755 3.56068 5.0399 -3.41791 5.08512 3.67367 
-3.70136 4.94453 1.63098 -1.86004 4.75995 3.37419 -2.21349 3.2035 0.602486 
-0.406 4.51652 3.37979 0.311824 4.86313 5.18272 -1.36337 5.62924 4.77826 
-1.70006 5.44009 2.62343 1.86892 4.09719 7.11084 -1.1419 0.741783 2.16966 
-0.423151 -1.61929 5.13152 13.5271 -2.38917 0.929427 8.32511 -6.20474 0.0721392 
6.56523 6.85555 1.13263 6.32121 8.57181 2.9257 11.0608 12.2541 2.09383 
9.55126 3.81135 8.32599 9.49203 10.2015 9.42272 8.75679 7.76724 7.15028 
11.9452 -3.96469 7.85803 10.3148 5.45421 10.2461 9.45207 3.65473 -2.46464 
1.6043 1.7616 5.2148 5.78545 1.50217 3.60446 7.44266 0.669417 8.98256 
12.2049 -2.25244 12.1566 11.8195 -5.67282 5.53996 8.58448 -0.93658 4.73333 
9.43345 -4.20995 -3.66049 11.9966 -1.92079 9.10367 14.6606 1.31322 14.0983 
11.545 6.63865 11.1123 13.3932 6.61406 13.6914 5.46913 6.45085 7.51543 
5.51352 4.9587 8.70631 8.39097 14.3306 6.00704 10.7297 10.5464 5.38402 
8.61989 6.1748 -0.678281 12.4855 9.39819 -0.445295 8.33622 7.11697 3.8607 
9.10569 9.26956 1.67998 9.30115 12.0265 5.30213 8.94027 10.3049 2.95529 
7.53914 13.5605 3.88507 10.2639 17.4889 2.55368 8.7029 7.7754 4.90221 
2.42332 5.72164 2.76959 6.3285 4.01025 4.251 6.87291 3.21015 7.33323 
12.4772 10.5348 3.65177 2.25983 1.9268 2.01051 5.96811 2.65912 0.559456 
7.69871 -0.969519 -1.14334 5.62546 -2.58875 3.34447 3.97021 -3.92594 5.28566 
6.85974 -0.257046 9.33838 7.41122 9.92674 3.29113 10.0568 -3.30554 8.12412 
10.0945 2.56712 3.25999 11.5271 1.64623 8.22998 10.6635 4.11759 4.1574 
6.79211 7.43477 4.14114 12.2142 3.93021 6.45765 12.2336 -2.79846 9.74951 
12.2098 -4.6719 6.42197 13.7953 -5.72669 2.50537 13.9415 1.73409 -1.43445 
9.71302 -5.32887 5.06784 8.60867 -4.95777 -1.81982 8.9383 6.82278 7.93877 
10.4042 5.15366 9.5466 13.1983 -1.04078 11.4062 10.4849 2.22675 9.53441 
11.5749 2.75836 11.0811 10.1083 4.43241 9.66331 10.1727 6.66704 8.21745 
10.4539 5.73441 9.85082 10.4324 8.59146 9.84128 8.82722 7.19447 8.87278 
8.07217 8.82005 8.36672 5.68696 0.850176 7.96868 7.58479 2.83736 7.88238 
6.97032 6.88539 7.00629 7.62911 11.5701 7.97212 12.1071 7.59327 8.90415 
8.46906 10.023 6.87186 10.0375 9.06663 5.95411 10.2851 11.5865 5.77545 
2.25907 12.5273 7.41873 6.65782 11.2959 6.60884 4.92682 10.1235 7.46013 
12.5429 7.81967 12.2772 12.5969 4.43123 12.6022 9.05973 5.21149 -1.49061 
10.3124 5.9914 -1.24017 6.66665 6.48471 0.406453 9.93759 7.70611 -0.254488 
[...]
CELL_DATA 2484
SCALARS scalars double
LOOKUP_TABLE default
-2.2530969712 -5.2684373009 -7.4957138467 -7.6863850516 -1.8958723613 -1.9647401043 -1.8859656554 -1.4917237395 -4.864657998 
-1.6679580356 0.40349765846 -1.7605090198 -0.3716912464 2.140507065 2.3926245107 0.74804262171 -0.38791032347 -5.4242989879 
-4.9964610846 0.25570446232 -0.71848743857 -5.48272238 1.7698090843 -3.5837627866 5.0089652069 -3.2296019528 -4.4616955433 
-3.2957067925 -3.1980094815 2.1216825725 2.1077485663 2.2653665195 -4.2470732134 -2.2026362528 0.047485078946 0.13839701903 
5.4481156388 -0.28855245343 5.124064455 0.28887404479 0.80362432306 0.15910139683 2.6843853221 1.281366385 2.8190651816 
1.04759686 -8.4404404221 5.6271493916 2.0108106829 3.8682566994 1.1699957081 3.4829951769 2.2023673646 1.319710322 
-2.3908460233 1.679157438 -0.31079161917 0.43376676982 -0.36712163791 9.4216788205 0.19892751051 -9.8942814359 9.4968053108 
-3.6864097821 -9.9292985528 -9.9135309584 -0.75876227883 -1.7779581592 -0.81711593515 -1.5491682146 -1.2083647799 -9.1308501069 
-3.3510623677 -3.3334912515 0.23992576687 -0.83839048658 1.9472996029 2.1690248195 -3.7387111398 -3.0099957932 -1.2283824772 
-3.4180269268 -2.1805657925 -1.3739620572 0.41746968708 -2.9034279765 3.8953708606 1.8104513011 4.1568525164 3.4617832475 
2.8453057248 1.6447534594 -3.1689792082 1.1119206133 -2.4540845769 -3.1031807969 -3.4143470536 -2.8541609302 -3.1572153354 
-1.0633716636 -4.4822536005 -4.8451848712 -2.2098729345 6.4226310026 -1.1939919073 -2.7047129669 -1.0397990742 0.84709720475 
-2.9623361446 0.17325844983 -0.63840366856 -0.66106737917 -2.3926862259 -8.0577389933 -2.0782922796 -1.7539030226 -2.0664793831 
-0.988685483 -3.0330017527 -0.79114951918 -1.2426824499 -0.46067002444 -1.0776179586 -1.4777977862 7.1507844979 -8.9859074985 
-2.2514469996 -2.2602612143 -9.4363334822 -9.8019521767 -9.6891297281 -9.8794392713 -7.1960507224 -2.1155123618 -9.1893183177 
-9.5292895573 -9.8691435518 -8.5539779374 -9.082410422 -9.7235722376 -9.8024895196 -7.3354492944 -9.5636246271 -3.0052858597 
-1.1687787502 -3.0267762892 4.8341316046 -1.048141237 -6.7062895982 4.422519401 -1.1947875247 -9.3873511812 -9.9284160491 
-9.4785712072 -2.2298834428 -3.7398692586 5.4872086848 5.3384411232 -4.5563018921 -6.486427465 -2.8695403698 -6.9493113555 
6.4366457117 -1.5739158324 5.3991322304 -2.6731715075 -3.5618919293 -9.7585280358 -9.2399820406 -9.8135581771 -9.1575146845 
8.1701644996 9.0293688114 7.867470613 -9.6348124025 8.9479663297 8.8083418507 8.7914716007 8.9738722228 -9.6788217657 
-8.4792322465 -8.590664916 -8.1208064286 2.3297164688 7.4315719186 2.6590087495 1.0949392729 -1.053200807 -1.06142336 
-1.0184794702 7.0087542389 7.7875435486 -6.4932948532 6.5724656775 9.3638045345 7.2472784275 2.322685529 9.2871079149 
-7.7937420538 -7.3803117119 3.4808420885 -8.2919037823 3.5166724283 -6.3495469088 1.6967738169 3.4663717745 5.4285164267 
4.9119335444 5.2070062538 5.764771795 1.6424292613 3.8039133546 4.3740261482 3.688812392 -6.7008180046 2.6418754669 
6.4466628745 -6.3948727123 -6.9421756132 -7.3639791354 9.0013875237 -6.7652657748 6.955769254 8.8991817032 8.2255747744 
7.1202703316 9.0128936217 6.4347299229 -6.9546654562 -6.7140451889 -7.5242375736 -5.8996835505 -1.369118375 -1.1326989952 
-8.5437151024 -4.7349831549 -4.8239431112 -3.7371352964 -3.9418813904 -2.9259979536 2.9518177665 -2.9321072542 -3.517450657 
-2.0186784783 -7.9650316586 -6.9372632074 -3.1087488429 1.4964744048 -4.5710231907 5.4436774974 -0.79249100059 -1.0761222639 
0.95924166851 0.78515888415 -0.70312480827 -4.2640094697 0.54176093163 -1.7335516379 -1.795963786 -0.7823013349 0.21385548134 
-0.039507401881 -7.1901073618 2.8431002639 0.76751688142 0.44058221566 2.977474006 -2.149599544 0.089628511299 -1.2736252142 
0.72074398627 0.55297801188 -0.84049551819 -0.73966053917 0.34962733266 -4.1154185666 2.6581868889 3.6818412596 -3.7917653277 
3.0621283831 -3.0820622369 -3.0589498149 1.4296162242 -2.370616745 1.8867129858 -2.3352500961 -3.1349457832 1.3749925921 
-3.8872921151 -2.7976524471 2.1528901821 -7.5577993342 -1.2591790531 -2.5999010353 -3.7314189125 -3.9352307577 -5.1154010715 
-2.4897330257 -2.6764609712 -8.5604049054 -2.5113787643 -2.4249430298 -8.4911165951 -1.2571214618 -8.0749654485 -8.3823835898 
3.3989335838 3.3391332309 3.6535071671 3.4140458353 3.0227113561 3.1556990733 -2.6798206273 2.6812342036 -2.6305203885 
-2.8875522064 -2.2505496729 -2.4028663588 -2.9263629178 1.932332495 2.1029614404 1.6661408651 4.9193684384 -3.7320920455 
-4.7753258313 -3.6344952067 -3.8905099132 -4.9360266796 -4.0105832515 -5.2648689899 -2.9912100016 -3.9445495284 -3.0080024273 
-0.29822603091 -4.6498799727 -3.219556389 -2.6506839762 -3.3266599463 -2.3007493626 4.8892098331 4.6401378305 4.7478163458 
4.4161869972 4.366202426 3.9037055913 4.3876277307 4.5989538465 -2.1229981499 -2.4814054326 -2.0129876131 4.120871368 
2.5161586233 -0.86294377711 6.729678204 3.4836060138 3.3090571214 2.2268636544 3.3633279255 0.66041251121 0.081253620471 
-0.92039037641 -0.0025196800556 2.4986225878 -0.85152141747 2.7886292497 2.5123143042 -2.601513365 -4.3135408549 -2.9158966346 
-2.9381998954 -6.5773573588 -0.027219025999 3.1449373032 0.59080452865 -4.9209456766 3.7743745588 -5.6104765474 -5.2706998776 
4.4350093687 -2.2467325598 -4.4338934561 -4.8059919395 2.7051473401 -3.4162467199 -7.9109062212 7.088117927 -9.0018343848 
-6.6511951308 -8.0139263065 -8.9951499716 -5.8923062777 -7.7975512471 -3.4449915656 -5.2472117643 -7.8108542866 -6.3835287884 
-8.3579406846 -7.544474923 -5.8722194411 -8.5762750033 -4.9212382583 -4.9368333233 -0.044214142909 -1.742366543 -0.073967093911 
-1.7137355427 -3.3710960967 -3.5207771105 -3.7296456405 -3.3719576987 0.066252816805 0.67147534007 0.40824155318 2.2163578347 
0.46444583251 1.4721459176 0.16793788072 0.49005912016 0.67251490127 -0.33079554099 3.5334641294 2.6872379352 1.3360056084 
-0.13812686365 2.2186553603 -2.7294807956 -2.3447157039 -2.2492925661 -2.2988155809 9.3362181054 3.7247055946 3.7606110965 
3.5332351715 4.42644352 9.26402431 -2.658519079 2.1115349317 4.9416066693 3.4680407941 -2.1812492931 4.0440987434 
-4.6544183347 3.3796175409 2.6028123533 0.33304863105 2.6489324231 -2.1873906797 -5.3683444882 -0.52291975235 -1.5051648802 
-2.1404726503 -1.2453163746 -5.373096347 -2.0834337106 -1.596690843 0.93472295433 -1.0242738304 -0.1878222035 6.7349170487 
0.88492123295 1.8393961584 1.8702726649 -0.59530939282 -5.403438549 2.3349800201 -0.95425956983 -0.67452842853 1.3654691945 
-0.63073846873 1.0149585798 1.1367835832 0.6332387624 0.95800599793 1.7201170694 1.8846357429 -0.096741746922 0.10872437831 
2.9048385395 -0.28610139401 1.7784053577 1.789142619 1.4862544269 1.9676718896 0.53484642513 2.1340809013 1.0493001167 
1.0632395821 0.83405274901 1.9461202568 0.28047590031 -0.16255742381 -1.0049152491 0.7281875104 2.5193107092 0.78414529399 
2.9608356322 0.94196368586 0.055177694254 -1.1175136145 -0.72332499134 3.0766102392 1.6170624515 1.2046354166 -0.28994686431 
0.60838429822 -0.58534204339 -0.47209586056 -0.50096450125 -1.0255383575 -6.6957507669 -5.7644154474 -4.4736136525 -6.9508202835 
-5.1794798839 -5.7251327084 -3.549990679 -3.4195273857 -3.6034990376 -3.4129777452 -5.0580169749 -4.4426157748 -3.2349524705 
-3.5313077903 -2.6895552482 -8.6090909533 -3.6265776846 -2.8182266565 -0.23499808055 -1.3536256266 -1.1395502006 -6.1042742988 
-3.4605784057 -4.1838369579 -3.4496494011 -1.3100086966 -6.0058651581 -1.5017728597 -5.3877450223 0.23986118813 -4.3072021131 
3.0572575415 2.8671353742 -2.6193816154 2.6678794593 -5.3717699949 -2.7059984338 0.30783152443 1.6936235818 0.43589871312 
0.6687758787 1.8086981319 1.9388638297 1.9404470572 4.8147099357 2.7047054664 0.47531932656 2.8900297816 1.8040550137 
0.78742438353 1.6165122938 3.0356605004 -0.091898614747 -0.75842848995 -0.86723240524 0.45721803513 2.6397854626 0.62880045119 
0.56328005969 -5.5014935626 -5.3866761759 -3.442918557 -5.5827908761 -8.0904705373 -8.6044722559 -5.4056384345 -8.6946879381 
2.992347147 -7.9539288201 -4.1317077652 3.6772202118 -2.7907957961 -1.9178006007 -4.2710550751 -1.924857195 -0.55645740416 
-5.0844234341 -6.9000767059 -6.4934402697 0.93545229588 -6.5100590148 3.1759231747 2.85996828 -6.8977649992 -0.80085357206 
-3.438193769 -6.0041247003 6.8998423153 -4.5250753197 4.2207435359 5.6130349994 -4.5558744565 -7.0184401995 -5.7277498534 
-4.5082476229 4.9305016616 -2.9370249032 7.2548442019 2.267942422 -5.2342815929 2.3934718514 -5.7410598002 -2.9672045225 
1.2830797019 -6.8349245216 5.3423441788 5.5553736743 7.0102805365 5.5798833431 6.874900196 7.1341493612 -6.5475259196 
-1.9440363393 -2.1526808024 -2.5817015368 6.8270646115 5.1886828197 6.4897042776 5.3909446895 5.6812281208 -5.5099089666 
-5.2769235347 -5.5454892384 -5.5753454675 2.243074766 -5.333905818 -4.5632504493 -3.2517163687 -7.1923830777 -7.2451279617 
-7.2952145585 -5.2977502386 -3.3876855346 -5.5291490277 -3.3877197242 -5.4137047831 -9.3232885584 -6.7343617734 -7.3648686623 
-3.8881485396 -3.7733742572 -2.0965762582 -4.3018901426 7.7524576438 -1.5740390643 -5.86980608 -6.7864343527 -2.1794456453 
8.5549051998 8.3630999898 8.1484117216 -4.0001064106 -0.27089720046 -3.4643522576 -2.0146021585 0.74782448771 0.96439366891 
3.7127487936 1.2271343185 1.5671674317 -2.8615538479 -4.7224709837 1.1620718639 1.4608469448 1.1125804964 2.8157734329 
-8.4430912038 3.3233543893 8.8970821111 -2.2181449101 8.9606768442 0.75555966126 -2.8203716887 3.3456813706 2.7714662239 
-2.9382425377 -2.5573951302 1.1626505955 -4.9287136882 3.7436191424 3.3450648302 1.2517626658 3.8523687678 1.2992907513 
-4.7485847454 0.7722296739 1.5532645415 0.95168319225 -0.21811627454 -1.0159011026 0.098400152353 0.87819960728 1.6868495974 
1.3144852594 0.51590193645 0.32660875574 -5.8315623699 3.4170959133 3.4849608692 -2.8176325644 -4.8805333945 -4.1104204156 
-3.9277250443 -3.1782335233 6.7284980638 6.9400737117 6.5005305405 7.8395257437 3.3875006043 0.084113813337 3.7357942231 
-4.6487435013 1.8502382458 -2.3048925891 3.6888305206 -0.037770653285 3.2967690865 6.0037975818 2.5817484135 0.81964101471 
0.42699733951 1.646690873 -0.068178567395 2.1509932295 2.8437239408 3.7087683115 1.420850032 2.6974285873 3.0126190705 
2.4043036331 4.3777132827 2.605056079 -0.38118597321 0.012662626086 0.20140161698 -0.31067763445 1.0681834305 -0.38841335496 
1.4567213383 0.74390614529 2.8018313592 3.8432003039 3.8322166696 2.4211973916 4.5141321803 3.9602730456 3.7308317821 
-2.9876363436 -4.0977150529 -4.4583569693 -4.0282543352 3.2245600399 2.9764527227 0.81841331116 1.7846945154 3.5034465596 
2.3113203967 8.8359741139 2.0693802792 1.702602987 4.6385499889 4.4879478992 4.5244239036 -1.6551676591 -4.3960232092 
-5.2769095265 -5.1690256975 0.96481439333 -0.11059218529 1.5664157059 0.85528042139 5.8591084643 -3.2611135509 -4.7341446688 
-6.0456209816 -6.2207939502 -3.5193637356 -2.7464757884 -2.2749568073 -4.3789614622 -2.5346969221 -3.5281033269 -3.6475901766 
-2.0565609122 -4.1240957138 -4.8245122454 -4.6470663529 -5.7252307371 7.8155141991 7.9863088519 7.8044729317 -7.6664698201 
-6.3574013435 -6.7609304007 -7.7287985426 -6.7128652558 -5.9149041559 -6.5922543036 -6.7110823374 -6.9327248034 8.2171783468 
8.1471021762 8.1865762795 -8.0576701293 -7.9874217011 -5.1677478026 -7.9948633809 7.0035278313 -5.1276054212 -5.4770215201 
-5.0076300941 5.5007330749 5.1322754863 5.8238467447 5.5729783865 3.9986395294 5.7197933615 8.0061811124 5.9991524427 
-4.1861740173 -2.647921957 -5.0252305488 -2.0297692226 -4.2102189735 -4.0699521253 -4.075918996 -3.8931745869 -3.8202405419 
-4.9322502389 -3.3821007547 -3.2830047996 -4.394876719 -4.4198042556 -4.4696570247 -4.4663368517 -3.3680350286 -2.5310632214 
-2.2662807464 -4.6220995564 -2.4310073394 -4.6594440831 -0.1923921171 -4.2537191413 -3.7199136311 -3.0837260674 -1.8709779495 
-1.2773858666 -9.8842625541 -8.6502397014 -4.153289066 -3.8480958875 -7.1836732675 -4.3858797272 -8.28495047 -7.1711980935 
-7.4122734186 -2.615324849 1.3774401621 1.664888544 -4.7074188142 -5.2228072569 -4.2890511438 -4.2667349226 5.6796632978 
-4.1076927389 3.8073742908 -4.1876204263 -5.1253228279 5.8303634809 -2.7870572178 -3.0392837278 -8.4350454044 -8.4404015188 
-2.593215813 -8.531164882 -8.4386073396 -6.2859500976 -8.5401820289 -2.5309384207 -6.8974984186 -2.2826334186 -2.2545860406 
-2.9310411825 -1.1877130049 -3.50481912 -6.9780754143 -2.3311097517 -2.2403025662 -6.2134379212 -4.3984830883 2.3086506661 
-1.7816079414 2.4395897312 -6.8855889181 -9.1619081691 -8.5335733933 -7.5901394193 -9.6462117986 -7.5943151552 -8.452184034 
-8.5812404459 -2.7629016131 -4.2263746174 -3.6419119307 -7.9510580401 -9.0414477511 -9.5837507804 -9.4816188098 6.1300384944 
-9.9989483208 -9.9986114424 -8.9871041546 -0.13280206925 -3.3102124922 -7.8945150179 -10 -9.6569904617 -9.9824823403 
-10 -10 -10 -10 -9.9376593716 -9.9403518391 -9.9176012912 -10 -7.5610100673 
-10 -10 -10 -10 -6.3619848952 -4.000273597 -2.8893084326 -2.8844209419 -10 
-9.5968834677 -7.748279871 -9.6049927243 -2.9962706148 -10 -9.123647234 -8.7429444216 5.7045541353 -7.8242591526 
3.4059756882 -8.545125352 -6.6695545633 2.4387461456 -0.13880321785 -9.0122758512 -5.0407280033 -9.0576243193 -6.7094306689 
-5.0525091587 -4.4522862824 -6.8987968799 -5.8614691257 1.6666503788 3.0078702122 -7.898907321 3.6626515768 -7.9373198239 
-9.9213129316 -8.0322658928 6.0923838386 -2.9219943881 -3.1170184926 6.0186724748 -8.2719195344 -8.6445599971 -2.7472335543 
-8.368445737 -10 -8.0419827281 -7.4622295575 -9.9400428453 -10 -10 -10 -10 
-9.9503369983 -10 -4.4905566385 -6.7670874302 -7.7782000452 -2.4436655155 -4.8622819371 -3.6235968313 0.39754262765 
5.2596321002 -5.0304494045 -4.587080532 -7.0294172246 -5.0008968723 -2.5080806305 -5.1313936675 -6.0248818014 -4.7548254457 
-5.4471342938 -4.6848531263 -4.1975767604 -6.3545551432 -6.3177996743 -5.5605042521 -4.4337554978 -10 -4.3393684304 
-4.7759759448 -8.3882974563 -5.1441582984 -1.1667316936 -3.1679337039 -9.2116531892 -9.0967761973 -4.7167391618 -9.2411543574 
3.3718353009 4.4299975437 -2.7428807428 -2.4168685357 -1.6150598086 -2.9375483148 -4.6959205983 -5.068810127 -4.6974453988 
-0.47524867279 -0.36087079902 -4.8851252849 -3.7460627918 -5.709412839 -1.6047261792 -2.5994055864 -2.3964923312 0.21747940881 
6.8414837005 5.2964807521 0.66569849138 -2.5281580848 -5.5390170102 -2.263608522 8.0307875137 -5.0107254683 5.7970105587 
7.7899461434 -4.7539057254 7.9465028301 0.74016055431 -4.6090472396 -10 -10 -10 -10 
-10 -7.1469872655 -10 -10 -10 -10 -10 -10 -10 
-10 -10 -10 -9.6471443121 -9.0494147892 -6.1478703718 -7.9590912777 -1.6221726444 -5.2416196137 
-7.2797863792 -5.3364807282 -1.9987449932 -3.1554439065 -10 -2.5128658997 -0.86949081435 -4.2523258349 -1.3747730655 
-2.6198879739 -7.7507800407 -4.2187726476 -9.2466548215 -4.3150950445 -9.1987059263 -9.5262134932 -9.8164020607 -9.0839315493 
-5.5957506052 -9.532486069 -5.1025172821 -5.9424955203 -6.2798809364 -4.748021367 -1.5201401233 -5.2569042002 -4.9417472438 
-10 -10 -10 -8.3865123011 -10 -6.7543346333 -9.8966747761 -10 -7.8088493602 
-4.7835124112 -10 5.1841019705 -2.9673837495 -5.6670397474 -4.8380171883 -1.7357651098 -6.7742130291 -5.0317026146 
-1.943706197 -3.2896075531 -8.2767926337 -1.5272593151 -8.0795445097 -8.1832237604 -6.8472149551 -2.7460096632 -8.928585292 
-10 -8.0020519602 -7.0806824703 -7.5478472149 -4.64164577 -0.32382501789 -3.9842664812 -0.56190433661 -7.4475049629 
-4.1128282168 -3.92382829 -3.4162389283 -4.0431160111 -6.507924591 -7.544474839 -6.3976879582 -1.1312795598 -9.5985024451 
-9.0758022933 -9.0889765016 -7.3953692169 -1.2222309304 -1.9464325031 -0.68633945885 -2.3404225363 -9.0607256331 -3.1077524045 
-1.230555938 -8.27350048 -3.5876192833 -8.0564518887 -9.2914487572 -5.1171628944 -4.1438236512 -6.3780674552 -4.1294954907 
-4.3838066788 -4.8086867885 -7.0395010952 -7.3808528556 -5.4447569016 -3.8590679711 -2.646206839 -6.9727509651 -9.2424620937 
-2.7557114168 -9.3374929329 -7.6638941033 -8.5283625348 -10 -4.6948453652 -8.2117931076 -5.2710604997 -3.8201656452 
-10 -4.7945355554 -5.3347592344 -9.3106036626 -5.1707220697 -6.4264450238 -10 -10 -10 
-10 -0.18411193951 -1.9690817262 -0.50115075284 0.79978210533 -9.3754221551 -1.4816116202 -2.4530673317 -3.4891334446 
-4.5673229699 -9.8745256766 -9.5524849576 -6.9814560911 -10 -10 -10 -10 -10 
-2.9555044293 -4.5166761077 -4.6372237898 -10 -3.9090283196 -10 -10 -4.4665538635 -10 
-10 -10 -2.5180175666 -10 -9.0857398005 -8.2566175747 -10 -10 -2.7673572723 
-10 -10 -2.8310925621 -10 -10 -1.7112481312 -10 -10 -10 
-1.2991838304 -1.1488529817 -1.2935259019 -1.310491844 -2.7644207221 -1.7940839411 1.2880426353 0.0032714719184 -1.1253229636 
-1.8082044607 -1.1263267362 -1.1024064696 -1.1770217113 -1.3394008575 3.2393457704 -0.11162015966 0.019753160878 0.29880160993 
0.48035451044 -0.076000139032 -1.3052316135 -0.24503404474 -0.57877929554 -6.9331568265 -4.4481665219 -4.8560542086 -2.6454286376 
2.357919283 -5.7188575448 3.1127767863 -5.786947247 -6.7150142924 -4.5854759243 1.7357197893 3.4569932856 3.5204237513 
-8.2120852541 1.8477817426 -7.1284326133 -7.544840919 1.0862081386 1.4606702836 4.9122070335 1.8208596706 5.0201810679 
6.8113463812 5.236668638 4.6775852698 6.952641492 5.0758368351 1.7255607352 5.569284715 0.71060261266 0.36544319456 
0.47483395681 0.69065483651 0.034236885767 0.45557142066 0.7226707523 9.2580699858 8.7017727522 9.2809714013 9.1705687227 
-3.074675775 -6.2942216626 -6.296222017 -3.9442515621 -2.1917957013 7.1726573709 1.1779616272 -2.7770587722 6.0721585368 
7.6066222735 7.1610651547 2.1492202017 4.9258046392 1.5915574455 2.144204815 7.5020718021 2.3631502196 7.2451883938 
7.4438750693 0.47593418241 1.4719743551 2.4168400842 1.2560808952 -8.2522337259 1.7843660335 2.364259514 3.6512034313 
1.32846626 2.39626621 3.0958016043 2.3967741086 0.85558679933 -4.3152801068 -4.2958826863 -1.7350053238 -4.0529316868 
-4.1291568731 4.5584822195 3.2786084239 4.3163361247 5.5143560405 -2.8677617783 4.3877332547 -4.2411004656 -2.0924498956 
-4.8168316577 -6.9768394235 3.8032081114 -6.9210041167 8.6856015135 8.6481326785 9.3023557097 8.6494893453 4.2197140751 
9.9425935667 3.8288806052 3.829820608 9.3646219919 4.2827805702 8.7011452805 9.3574657676 9.669291086 8.2474645499 
7.3310166309 7.3419761784 -9.9183740656 7.1876841309 6.7745005307 6.3577308312 7.7989411257 5.6708903696 4.006886867 
5.5917162564 8.569990656 7.7666960867 6.5445381513 8.4936125775 8.4922412599 9.0357244792 7.1880638075 4.1860532223 
9.9422247208 9.8521506451 8.784944061 9.5155653608 8.7793211673 9.6432862112 9.6765517881 8.8610463416 8.8545501249 
8.9726767571 3.0940225773 3.1262932067 -6.4776778976 1.6301362002 3.4141312016 3.3652272246 4.4847023768 3.6566581946 
2.0915618682 3.5104803028 -5.8210960827 2.4824135817 2.8869566855 -9.9024139976 8.2741054775 -9.7904493602 -9.9638072619 
7.9821146278 8.5448866927 8.5632114372 9.3097628814 9.1725655654 9.2263913347 9.4862411002 -9.519632127 -9.5762077144 
-9.9469212353 -9.4766034611 -8.139896953 -9.2376304635 -8.5868373361 -8.6711558978 -5.7444290708 -5.0219849239 -5.9340174508 
-6.0350998957 -8.060888135 5.7271904707 5.7706760112 5.6837885553 -6.0094797716 -7.9035655995 -5.8699587899 -6.820722747 
4.7228814001 1.8853035485 5.1632776586 5.1287250733 -5.6916878431 8.0225702691 -5.2246763792 -5.3292143582 -6.9117417107 
-5.7681074779 -8.1867639728 -6.9148735378 -5.2464568289 -5.7773487194 -5.4429278352 -7.9536632934 6.5964354347 -4.6920625583 
-8.0200118479 -5.1678124412 -1.0493895104 9.2635542171 9.2223194352 8.6423181881 -8.573886366 8.6555292028 7.906584087 
8.4806358064 8.9724801641 -7.9889724726 -7.367645618 -8.2884348644 4.8682064488 -4.2987990801 -5.2062182203 -5.5122813192 
-4.1113169501 0.60117722682 1.1933133236 -0.36121970157 5.513022982 5.1483717066 5.8611948014 4.8717207622 1.4819834496 
-5.4238881555 -5.1088444398 -5.4393099212 -4.3595703972 3.5169844199 1.4516618497 2.3083084965 4.3384656024 -0.74931736653 