# vtk DataFile Version 5.1
vtk output
ASCII
DATASET POLYDATA
POINTS 1244 float
-0.9085 -2.29031 0.231273 -0.415919 2.44451 15.1004 -5.36518 6.66745 -6.3428 
-6.54965 22.6774 13.2469 11.0884 -5.16603 -5.98677 11.646 -4.33311 14.9702 
14.9955 15.0775 -4.91996 19.8481 6.53874 6.54351 -1.62678 -0.445213 1.14961 
-0.754856 2.68435 3.81905 -0.206568 0.0382803 5.59607 0.163021 -2.11956 5.21323 
0.30568 -4.06601 4.8958 -0.209159 -5.62182 5.74931 -1.50837 -1.57506 5.0929 
-2.25784 -0.803499 7.2225 -1.64654 -1.02372 9.90959 -2.95188 -0.931507 -0.87776 
-2.47667 0.666864 -3.0219 -3.17119 3.27384 -3.30739 -5.06516 6.58926 -4.15103 
-8.37897 13.1833 -3.86239 -2.1145 6.5509 3.9898 -5.58034 7.14446 -2.33632 
-8.89094 8.63078 -7.52312 -0.72953 9.36285 -0.686831 -9.09653 8.0667 -3.2137 
-8.96434 8.49078 -1.16457 -8.4933 10.0749 3.46138 -7.22643 10.2204 5.1229 
-1.4184 9.58945 4.63091 -3.48636 9.93999 4.31924 -4.5572 9.52958 8.83836 
-4.50458 11.6641 9.49765 -6.32718 16.7637 12.5333 -2.59788 0.467662 11.5301 
-3.90174 2.30142 13.0522 -5.22722 4.40543 14.794 -8.05384 8.16619 18.4563 
-5.08751 1.40963 9.93581 -8.9276 0.436657 13.7843 -8.05441 4.84441 13.6546 
-7.30692 7.12545 13.6048 -8.58148 11.3734 15.6096 11.5697 -7.80403 -3.516 
15.5925 -9.63295 0.919436 12.4892 -3.8903 2.02847 11.3016 -1.47841 2.34918 
14.9834 -9.99827 1.5023 13.637 -9.43493 4.45023 11.938 -8.56905 6.97367 
11.5322 -7.45833 8.0937 12.1493 -7.7006 10.8796 11.0264 -1.29022 -10.2845 
8.8836 1.3905 -4.80385 10.431 2.35087 -6.21023 11.5848 3.29519 -7.92645 
11.1993 6.99562 -1.43997 14.5023 6.55343 -2.75272 13.0602 8.98918 -2.13169 
14.8104 11.8304 -4.48487 15.1202 13.3036 -4.27025 11.0388 25.1627 2.73357 
8.84811 19.4726 3.27281 6.11048 14.7234 -1.39792 9.17626 11.6647 1.99774 
13.1019 12.2862 3.80031 12.861 15.3013 3.71753 10.9306 20.3391 3.15839 
-2.80648 15.5953 6.5867 5.1271 -3.28127 6.76149 10.9667 2.08164 16.9546 
10.311 5.36434 18.5129 9.10355 7.38946 14.6437 8.22475 9.01392 12.0828 
15.1169 3.72937 14.0461 15.33 6.84851 14.4094 14.1142 8.94118 12.9721 
12.35 11.7393 11.0827 6.6598 18.7484 6.61442 0.56933 -2.44167 0.940389 
1.74961 -2.32437 -0.615645 1.6924 -2.33373 -2.36867 3.40593 -0.302154 -2.57536 
3.84357 0.238406 -7.25484 5.26165 0.392595 -5.0419 7.36558 1.5191 -3.39866 
8.02809 1.41308 -1.84801 9.07677 0.814923 -4.47008 0.651062 4.06357 17.611 
1.1489 -4.09903 13.9104 1.67679 -2.84907 15.9343 2.2865 -1.10122 18.3955 
2.68746 -2.30214 12.7228 2.3789 -3.88543 15.2562 6.32605 -0.865263 10.4763 
6.51886 0.704273 11.3777 9.82397 -1.19757 13.0271 -3.62799 14.0294 -12.6577 
0.721552 10.4006 -7.05489 3.4416 11.8135 -2.38858 6.47951 15.5918 -3.04675 
3.74117 20.2714 -6.99952 4.6777 13.9967 -3.61166 6.4937 11.654 -3.74293 
10.9724 14.534 -4.76094 17.5487 20.2572 -6.94958 -0.601276 13.5496 9.73718 
1.11598 14.6445 9.40412 4.19068 14.8021 8.76701 5.81615 13.3 8.63655 
8.07423 15.666 9.25049 4.30654 13.3027 8.61795 6.89397 12.4864 7.91754 
9.29944 11.119 7.31543 13.0451 7.3329 6.52701 0.657061 -1.12954 5.95638 
-1.82923 3.78775 2.71402 -3.65703 6.05704 2.43748 -2.00587 8.80254 0.92207 
-0.669225 7.26282 -1.38254 -3.57433 4.55085 6.2422 -6.68384 9.56775 12.3715 
4.07154 7.36627 17.1282 -1.90853 0.894724 7.51606 -3.77607 -0.712632 17.2467 
-4.16708 2.41171 -2.81687 0.20002 6.59951 3.40765 -2.82136 1.53557 -1.36128 
1.54657 -0.615212 7.76877 -2.2756 -0.0401839 10.3907 -1.18449 0.288647 2.79439 
0.393761 -0.597871 7.71113 -2.0466 -0.876327 0.276934 -4.05167 -0.536285 7.56723 
-5.38583 3.06662 9.91194 -4.77323 6.74465 9.96068 -1.85781 8.51502 6.41392 
-3.09733 11.6068 8.18424 -4.93386 14.6268 10.4852 -1.74962 12.4931 5.53085 
-0.916267 9.60243 6.01119 -4.11848 3.97111 0.028098 -5.66124 12.9155 7.1715 
4.36538 1.83667 8.34332 -0.938739 2.20611 -2.14723 1.46257 7.87521 2.61047 
-1.30543 9.4016 4.10743 -5.64187 9.71068 1.63103 -0.313131 10.1734 1.08223 
-4.1572 5.74705 6.8221 -5.82957 7.23807 -0.231112 -4.57525 7.29177 2.92387 
-3.16687 12.0803 -0.0784463 -4.04296 6.57982 1.51719 -0.419023 3.93348 2.35779 
0.195882 1.86443 1.87023 -6.17591 7.2179 -1.1995 -1.68603 5.43081 1.80447 
-1.29158 -1.50102 2.54888 -2.49889 3.7015 6.42436 -1.53532 2.32007 11.2359 
-1.29269 4.85503 1.57717 -4.00359 9.66021 5.47508 -3.20547 3.18818 9.55437 
-1.05961 -3.74273 1.22093 -3.05371 2.21981 3.52305 0.282938 4.60874 4.27985 
-1.75135 0.44896 9.09072 -1.60204 1.12553 4.87062 -0.250354 -4.0286 -1.23643 
1.70664 -6.59264 9.96182 -0.328283 4.31505 5.55682 -2.18394 1.56778 0.919804 
-4.12725 -1.55443 11.5098 -4.81294 -0.166664 10.2389 -4.50978 1.03319 7.84249 
-3.682 0.974493 5.86419 -4.3946 3.33668 7.88625 -4.31841 5.50849 8.24129 
-2.54643 6.68942 6.3199 -2.98663 7.58245 8.1389 -5.9107 7.98781 11.2035 
-4.10762 8.71932 8.96945 -5.21773 10.3768 9.81082 -2.23061 10.413 7.30558 
-0.763953 10.3136 5.96549 0.646274 12.5245 3.6969 -6.15411 11.8883 11.5761 
-7.21273 13.8584 13.7737 3.44915 12.7777 -0.597772 3.04519 8.86026 10.0311 
-3.40771 10.2809 7.26344 -1.43825 15.7678 6.27247 -0.13449 14.6882 3.97721 
-4.00457 13.0749 8.73033 -6.73821 5.66722 12.0869 -5.51591 5.07813 10.3633 
-4.22854 3.22344 -0.989948 -4.81721 6.51014 -1.491 -3.74968 4.67113 0.816632 
-5.09295 7.38371 -0.0700149 -5.09485 9.33023 3.22891 1.89257 -0.68138 1.20316 
1.60986 1.71477 2.30917 2.74214 3.60316 3.76939 3.61884 9.2 9.30983 
2.28005 5.99112 4.55193 2.42829 9.74086 5.77147 0.554042 5.16731 0.609024 
-1.07892 5.26557 -2.34407 0.430485 7.44893 0.357711 0.28571 9.26024 3.62271 
8.82095 15.5612 1.576 -0.649105 9.2237 3.11013 0.103876 9.54379 0.542002 
-1.38015 9.70109 0.157642 -0.751676 10.2291 2.22123 0.993692 10.3778 2.17233 
1.51069 11.0298 3.94748 -2.34972 1.2668 -4.64852 4.39248 0.0613454 5.81237 
-0.267311 9.41092 5.33795 0.944638 8.99092 5.2104 -4.19149 6.10016 4.04839 
1.82981 8.7816 7.58378 -3.43713 4.85978 11.5449 -5.73012 5.90381 1.55023 
3.35044 5.02822 8.19163 -0.867174 8.51711 0.667793 -2.79769 6.1691 2.09732 
-0.372546 7.2123 3.10859 2.87368 11.1719 0.965849 3.28046 3.38842 8.96735 
-2.27094 8.79274 6.79122 -1.81341 11.3426 3.32348 -4.83211 9.35625 -2.40866 
-3.86916 9.1106 0.822627 -5.15683 7.11736 -0.730363 -2.6046 8.18501 3.78944 
-2.93694 6.16837 4.38352 -4.28454 13.1551 -4.78498 -7.52408 3.69429 7.89413 
-11.2678 3.1304 1.83995 -2.42996 5.05718 1.48532 -1.24677 3.03395 1.7864 
-0.979072 2.81118 1.66144 -1.21614 1.7342 0.473064 0.727176 3.15601 2.6926 
2.23404 2.97959 3.47397 4.26288 -6.31067 1.93772 -3.26772 1.60287 -2.50386 
-3.83457 0.376942 -1.34259 -3.30163 1.19291 -0.127827 -2.49055 4.87202 1.37776 
-3.02959 -1.04947 -2.62357 -4.93911 -4.16579 -6.0603 -1.31893 -3.79058 2.26007 
-0.788058 6.6282 4.69533 -0.190666 9.69631 7.38466 0.838424 -1.67656 10.0136 
1.75699 0.640067 12.084 2.0378 -2.64252 1.81116 0.367619 -0.199244 1.17153 
-0.898897 -1.23825 -0.85397 -3.03385 4.60891 4.33183 -2.82091 3.94988 7.59637 
-0.829789 2.20041 6.91423 -1.22045 2.7526 7.65463 -0.248796 1.93556 9.02222 
-2.61327 3.15771 9.43743 -2.82536 2.22327 13.3102 0.326851 2.09394 5.31966 
-1.4693 4.67847 7.14021 -2.17001 6.55365 4.02278 -0.77502 0.907561 -0.0929739 
-2.12532 7.17518 -2.4902 -2.61115 8.08127 2.58151 -2.15979 2.71077 6.25252 
-5.1269 5.2205 13.8713 -3.20193 2.31296 11.0472 -2.49088 1.80584 8.56712 
-2.33648 0.944012 10.2317 -3.06164 3.92502 7.84508 -5.60538 8.12654 11.845 
-5.55462 10.6608 9.25264 -0.808438 2.64681 2.01606 1.1835 0.346017 4.62871 
2.71689 -3.53921 6.93676 -3.67988 -1.5613 -2.38621 -4.20191 1.96862 -2.29186 
-1.68229 1.95719 5.39546 -2.95825 3.33875 4.90231 -3.50354 4.1131 2.44563 
-5.10852 3.5071 0.754945 -1.86004 4.75995 3.37419 -2.64498 3.23563 -0.229909 
-0.353769 4.97746 3.14706 0.311824 4.86313 5.18272 -1.36337 5.62924 4.77826 
-1.70006 5.44009 2.62343 2.31137 4.28827 7.46164 -1.17208 0.165605 1.81124 
0.458447 -2.93476 4.15523 14.0443 -1.78426 -0.380195 8.42557 -6.78898 0.451226 
6.56523 6.85555 1.13263 5.51952 9.09948 1.83001 10.5916 12.1501 1.44415 
8.97288 3.27392 9.99636 9.42986 10.6494 9.10154 7.83587 7.41324 6.55472 
11.0003 -4.1411 7.9731 9.20773 6.03562 9.83742 9.53169 3.58167 -2.81385 
0.710276 0.720921 4.70818 6.98556 2.03501 4.09442 7.52167 0.469546 7.20938 
11.2845 -2.46912 12.8118 11.9103 -7.16716 5.37122 8.58448 -0.93658 4.73333 
9.78197 -4.95672 -4.63199 8.58759 -3.81256 10.6994 15.8193 1.40209 15.7621 
11.5709 6.21019 11.6322 15.4429 8.00378 13.0869 4.9943 5.58978 7.21923 
5.40017 4.08952 6.60346 6.19726 15.8474 4.76167 11.0528 12.9545 4.52614 
9.13126 6.38552 -0.509399 12.3818 9.31902 -0.409987 7.93521 6.75368 4.07346 
9.10569 9.26956 1.67998 8.58757 12.143 5.28696 8.99742 10.2551 2.84805 
7.14378 14.1323 3.31435 10.6525 18.0475 2.87806 8.7029 7.7754 4.90221 
1.61102 5.18795 2.00365 6.3285 4.01025 4.251 6.01379 2.83314 7.09582 
13.6822 11.9612 4.06026 1.76627 1.72162 1.42502 7.3236 2.70494 1.47241 
7.65281 -1.90235 -1.29786 5.72541 -3.76628 3.41508 5.96668 -4.47729 5.49909 
6.49842 -0.466719 8.80252 8.31956 13.6335 2.18616 9.02116 -6.5257 8.02131 
10.6596 1.44892 3.33019 10.6413 1.84499 8.4657 11.1115 3.82468 3.76894 
6.53915 8.49566 3.59874 12.1244 3.80971 6.90098 11.4643 -2.74476 10.0317 
10.9786 -4.94462 6.14881 13.6306 -8.30019 2.31048 15.1911 2.10582 -2.64497 
9.08979 -7.2804 6.32178 8.69858 -5.86423 -2.03617 8.51969 6.98558 7.0583 
10.9038 5.42646 9.42075 11.8981 -3.38434 13.547 8.37623 1.81993 10.0325 
10.1799 2.40484 11.7121 9.54529 4.21046 10.7028 10.2562 6.53535 8.26877 
10.3024 5.5586 10.5195 10.4739 8.95488 10.0513 8.90812 7.50478 9.12345 
8.05857 9.12532 8.19911 5.24571 -1.05955 9.40525 7.2568 1.1296 8.6052 
6.26043 6.80252 6.95972 6.22086 12.9297 6.63491 12.4569 7.17163 6.61234 
7.31106 11.6649 5.24355 9.20096 10.5217 5.18757 8.83045 14.5802 4.38552 
0.0664013 12.739 6.27917 5.68279 11.5284 5.60104 4.25361 9.16364 6.35515 
12.8288 8.00187 12.1356 12.7016 4.07971 12.887 9.64287 5.0268 -1.19204 
10.3124 5.9914 -1.24017 6.66665 6.48471 0.406453 9.93759 7.70611 -0.254488 
7.94594 8.25759 0.646644 7.3541 6.8383 2.92145 7.47198 8.48473 1.65777 
[...]
CELL_DATA 2484
SCALARS scalars double
LOOKUP_TABLE default
1.5748871119 -6.2414847289 -0.18503905959 -3.1180911894 2.1610829352 -0.48740586303 -3.3828566378 -1.7982974702 -3.5545719023 
-0.58601918305 -0.1611890832 -1.45962157 -2.0126378498 -0.24984015769 -0.25077986937 -2.3930704616 -1.7838585664 -5.2809139015 
-5.4011967368 -1.9737856585 -3.0658820783 -1.0627933841 -0.86042216716 -3.2824878835 3.8473135726 -5.4972459489 -4.441026714 
-4.0486818816 -1.9902633902 0.53217803946 0.70106188023 0.5338080551 -2.3382419889 -2.016108075 -1.7557627454 -2.0904123821 
3.94058666 4.4534599335 3.4382718405 4.754658626 -0.62438650682 -0.4610677127 -0.035222289943 -1.6509820488 2.1429312058 
-0.73808031959 -7.5318735507 -2.954056037 0.40726311436 0.75477222508 -1.3625951132 -0.58679882472 0.19739914336 1.549030122 
-0.2768875006 1.0062723173 0.32058105159 0.081710574864 0.2729818844 7.3288300184 -0.67371644609 -9.7002291273 9.3605610614 
-1.8531096632 -9.7156383294 -7.8493295883 -2.3718064129 -0.92281831353 -1.064992366 0.88520212206 -1.9853961217 -9.0760388687 
-1.8138284282 -2.222351016 1.4183440084 -0.60767180076 0.31306037079 1.4442024621 -2.0271390581 2.0267384791 -2.0223278796 
2.4049808949 -0.40336967271 0.043564032525 2.5105169924 2.7950010622 0.95452724613 0.39419018259 1.0784721997 -1.3355184118 
0.93364509541 1.3338790737 1.9449558407 1.3970361607 1.3739050856 -3.3263699901 -1.415307193 -4.5037382281 -1.6280654474 
-2.1209946971 -4.4822536005 -3.9756260047 -3.7411881823 5.4800348543 -4.4122411136 -3.7221365424 -2.7499973871 -1.9364481965 
-4.2733569979 -0.10939033829 1.240435057 -4.2563542306 -1.4028112587 -8.2064751118 -0.69732851693 -0.631774804 -0.089826398051 
-0.032854721814 -0.87533633483 0.059319135342 0.12972826444 -0.80476953789 -2.5784925319 -3.0633336689 7.9986895068 -9.8803894933 
-5.026294209 -6.9620366487 -9.4361923222 -9.9380796134 -9.8183327741 -9.880005748 -7.1960507224 -2.1155123618 -9.1532336412 
-9.5292895573 -9.7722839316 -8.8070057223 -9.084266278 -9.7299461122 -9.3857126356 -7.3354492944 -9.4542311284 -1.7584400561 
-0.93174647491 -1.7584194722 7.8743187205 -1.4026239606 -7.9558581437 7.2942949498 -1.2048835786 -9.3148872023 -9.9284160491 
-9.4306500156 -0.08088007078 -2.4338301418 5.51184922 5.974778077 -4.8127787053 -5.8355453435 -3.2983413253 -6.5616867778 
5.9053410295 -1.3758661905 5.5409467887 -2.6602887084 -2.4059398675 -9.7585280358 -9.855911478 -9.8135581771 -9.1575146845 
7.8954055803 8.5432042005 7.8128262536 -8.9076453212 8.5558550773 8.4943000702 8.5319759485 8.5109911423 -9.58466873 
-9.218520073 -9.4542029219 -7.7133147362 1.6353833805 7.4072798459 1.7284034373 2.4320224074 -1.1973846758 -1.2904132167 
-1.8134995354 6.6400896574 8.3498432374 -6.1520195831 6.5728319778 8.8154301635 7.4210628473 2.6466470519 8.5451222576 
-7.4344055223 -6.5581406283 5.3965564421 -7.3553170136 3.0338382157 -5.7307469152 1.8866190761 3.4805108234 3.3449418087 
2.5827613591 4.3032618713 2.0135499881 1.7939602979 2.6852250198 3.258052561 2.7896081188 -6.0858321932 3.0964315534 
6.2476573453 -5.2056359412 -6.9603221391 -6.9985865642 8.6170305798 -6.9142509416 7.4287094479 9.0152830336 7.7943173547 
8.8083191455 8.633546626 6.2939859339 -6.5490339671 -6.7833360341 -7.5242375736 -4.6568233131 -1.369118375 -1.1326989952 
-6.5831830145 -7.7490773807 -5.5655076463 -5.4974868081 -3.3132648321 -2.7068716502 2.5853133557 -2.4281640596 -3.517450657 
-2.0186784783 -7.915669492 -6.9372632074 -1.8299138872 -2.4239579536 -6.9406637485 -2.6393417492 -1.6867030275 -2.3156415464 
-1.3450248597 -1.6331857868 -2.8294621576 -5.8953154283 2.5053258796 -3.3005414453 -3.2179396395 0.21926552188 -0.39540974463 
-1.2750269807 -1.1379786613 -0.01759942772 -0.48504045262 -0.77438602675 1.3198329749 -1.7400644027 0.48967901891 -1.5209460724 
-0.50627594387 -0.23055366705 0.24598928137 0.23667405633 0.12159041937 -3.8088506 3.7293623432 3.9704237158 -3.1955200013 
2.9082441642 -2.9872810476 -3.382725908 4.9316364638 -3.7019360525 -5.5807351083 -3.261704853 -2.6744816818 4.2113810805 
-3.3082685961 -3.2819352579 0.57490300056 -6.3291130278 -2.6433363411 -2.182339604 -7.0839116174 -6.1428511316 -8.4927750653 
-6.7311771506 -3.3206222366 -9.1847619453 -3.2117861589 -3.1541655663 -8.8418315902 -2.5696834631 -8.0063860999 -7.7579787139 
5.0242278294 4.8353651729 4.7509157828 5.1063321579 1.7186711723 1.4537735706 -1.6990198022 1.4367995062 -2.7561606874 
-1.8196762059 -2.2505496729 -1.9499859783 -1.8137166896 4.3238368182 4.0646374885 3.0842421862 3.6886414408 -3.8020276622 
-3.6784718424 -2.9008360693 -3.8905099132 -4.9360266796 -1.222390756 -5.2648689899 -0.97160285397 -4.1265020113 -3.0080024273 
-8.9626400601 -3.6824909713 -3.219556389 -2.7596980884 -3.3266599463 -3.2584851507 4.5852899673 4.6833838516 4.6753955084 
4.9862373991 4.7331530221 5.0295799882 5.0614420067 4.7110333098 -2.7473845533 -3.4021187316 -2.7829837249 0.89253672597 
1.8592892436 1.456853955 2.5079604795 4.5510396455 3.8081554914 0.01775690602 4.1027492003 -1.7931577359 -1.3816339088 
3.6692551567 -1.4412109354 0.30884866201 1.5865576472 0.67451735293 0.48858038596 -4.7182116835 -6.3968546848 -5.0718785699 
-4.9395869473 -0.092334426414 0.68625482548 -0.72509909192 0.52849340453 -3.5153915576 1.8234035034 -5.3086676844 -2.7632372206 
0.90175154097 -4.2703763993 1.3799789376 6.8534965481 4.1636859684 1.1746055011 -5.08722244 5.6510978075 -8.5450397905 
-6.0571365758 -8.6127876425 -9.120127387 -5.8923062777 -8.3900132226 -3.4449915656 -5.2472117643 -8.3783897841 -5.1743560909 
-8.5208712584 -9.1883720576 -5.8722194411 -8.1918543201 -3.4036443496 -5.6750203243 -0.33353430963 4.0150554267 -1.0813399436 
0.12668126787 -4.5085772443 -4.4291648499 -4.4079979969 -4.5038125741 -0.97361760272 2.4641996496 -0.21362918122 -0.32386649289 
1.4792766731 1.6968993469 0.85519888997 1.4505021267 1.5498886263 3.0002857475 4.5532333339 5.1192445662 5.1718441977 
2.7167800707 2.408977132 -2.5435573256 -2.3447157039 -2.3068435263 -2.2510088822 9.2940038358 5.937662264 5.917988483 
5.8218739306 6.9531252614 9.2969047134 -2.2619408777 2.3478336469 3.3806107925 3.6871615692 2.5422520153 3.781547188 
-6.8821783747 -0.64490874523 -0.8945969455 -3.0339335959 -0.26885570975 2.6153162352 -7.0708676669 2.7209631709 2.5278276237 
-4.3015778636 -4.6878351293 -7.6912729016 -5.0007930972 -1.8781324139 -0.73054069359 -2.0954777835 -1.3822998851 7.0062178267 
3.0730788489 2.9697306587 2.8861848214 -2.4906523404 -2.6941775147 -0.47974449199 -2.4050198705 -0.47160012181 -0.035851479494 
-0.54352379887 0.030356002224 0.072993927452 0.21832583188 0.04684005663 3.1199291044 1.6893980338 2.0063117221 2.0498989627 
1.433764469 2.4227462643 1.5972304179 1.3287685197 0.91007617024 1.6415729146 0.22336599684 0.91366597061 3.0635508233 
2.6895137476 2.9215334864 0.11573478589 -1.2650403944 -0.49061537063 -1.582101466 2.5190518553 0.55447549556 1.7074455214 
2.098098581 -0.93525318517 -2.0482257044 -1.4132255934 -1.8404398216 -0.46960116032 -2.4208000666 -2.5629880443 0.16340340072 
-1.4080832873 -1.6698381908 -1.7260329789 -1.6610440279 -1.3644004516 -3.7995337193 -2.6414361314 -5.7251287238 -5.2043284015 
-3.6028438309 -5.7251327084 -3.6598776477 -3.4195273857 -4.9926777749 -3.2595072087 -5.3376460972 -3.9558254943 -4.5900379282 
-3.5313077903 -2.7673365911 -8.8165284499 -3.1015051939 -1.2817240686 -0.31563384096 -1.8585637547 -0.54700879896 -3.4028383352 
-3.5523675352 -3.5879818616 -3.9489188264 -1.4541127448 -1.9836681601 -1.1049879133 -2.7395812824 2.8665122517 -5.1879183089 
1.9369760861 2.931373206 -5.0651397718 0.9740548269 -4.4167175014 -5.1092408558 -0.16699954234 -2.3598251296 2.2217171082 
0.70948132079 -0.37072001513 -0.36898571292 -0.35832031824 3.6820873218 2.9580810533 -0.36391124935 2.9684812476 -2.3367035184 
-1.7097646172 -2.2404678256 2.0228186802 -0.92281236955 1.2625809299 0.51240145607 -1.5058486177 2.8681534568 -0.6806550507 
-0.53077912118 -3.56820515 -4.5962552906 2.4009217311 1.2287101883 -9.0013926189 -5.2668460261 -5.4056384345 -7.3826779453 
4.5118855371 -9.2629759963 1.6857375847 -2.478082629 -3.4278679776 0.21338679213 -5.0228021652 0.53569695045 -4.2782047697 
-4.9687565466 -6.9477955452 -6.3847935539 0.60580888966 -5.8808319643 1.9430533679 1.9416602786 -6.9382665806 0.4501823491 
-5.0834981045 -5.7026439278 0.59068536298 -0.78965106487 5.6930342007 -0.024309667225 -5.6290998831 -7.0184401995 -4.0900009066 
-5.8849926664 5.193998661 -6.8196121671 4.5858257627 7.1667963468 -3.6003647588 6.2265195407 -5.23533497 -6.117998941 
2.7604166625 -7.1752260598 5.687208787 5.3974116243 6.8394352077 5.5149067911 6.4657091594 6.541507625 -7.1626276136 
-2.9149094197 -3.1507136124 -3.3325030163 6.7259148924 4.9062400828 6.9604079958 4.9837379031 5.608807206 -5.4579393445 
-5.5531663026 -5.3483000387 -5.1430749274 3.331249465 -5.4350984956 -5.186126273 -7.2571610499 -4.6839673948 -3.1935177681 
-4.6836205003 -5.3875893206 -7.1074997914 -5.4856483611 -7.1610637172 -5.4137047831 -9.3312477414 -7.0176383932 -7.4596063428 
-0.93006005485 -4.3675719278 -0.30325744735 -1.8200776224 8.6084160398 0.2909379473 0.18280600908 -0.26702437515 -0.12918037446 
8.6800054532 7.8947128115 8.6498110267 -5.7293813723 -1.8863868506 -3.5327255717 0.14228533398 -0.13932757188 3.73370172 
6.0700666108 3.7967479762 -0.29172647771 0.83237564979 -2.5774721188 4.0114403823 -0.39677296351 -0.9320262995 -1.5752534213 
-4.5200432121 1.2543958234 7.7403182273 -2.3053998977 7.6635986489 1.8933267824 -3.2418472343 2.7307758582 1.9399386232 
-3.2655165122 0.521986183 -4.0032581662 -1.0857946606 6.0461274735 0.88661441489 0.20802300481 1.0304695622 -1.2558041476 
-2.7371995585 -1.7285586419 -1.6087511769 -1.8601643699 -1.7731684015 -2.3421257892 -2.2708011457 -1.4028003951 -2.0754324053 
-1.4447661857 -2.0912906234 -3.8022024411 -2.6182357994 -0.6614729736 -7.6081020665 -2.0728782201 -0.48980701493 -3.0718260333 
-2.0398413445 2.7865474815 4.065483619 4.9255748864 4.880451536 3.8318250876 3.9063210929 -1.760062921 3.425002895 
-2.4191239207 0.086270011672 0.46721449129 -0.69787723467 2.1320474075 1.8343003739 2.8236529656 1.8220482236 1.6136509137 
2.4179219907 0.33590877337 0.63214397333 2.3972875808 1.7571772182 1.8375424195 1.9570304492 3.8147285645 3.4245830627 
2.1962601791 3.126895613 1.4567224606 -0.1789059168 1.6398296627 1.8940665517 1.0670959776 1.5260526314 0.012071373608 
1.2327325787 1.6408712831 1.9675911705 2.8358510002 2.2568416196 3.0232895506 3.4118396256 2.9482225378 3.98539206 
1.1800985937 -2.3525091313 -0.49012070206 -2.51726761 1.2926589254 2.1650497545 0.87155132706 0.99220217015 3.6507343424 
1.7918212202 5.2483159867 3.6698242558 0.74981564361 3.5776848058 3.9365484806 3.8922198889 0.10270739737 -4.007382213 
-4.2897402583 -3.9386775402 -0.75214671809 0.40500408664 0.24746002387 0.59492671078 3.8421145807 -2.3457740222 -4.715762475 
-5.0687060111 -5.3035306515 -4.9104244344 -4.1439838104 -4.0118880096 -4.2443069193 -2.3371838906 -3.2151858069 -3.3765876293 
-3.0365638244 -4.2552172557 -4.8624229372 -4.6470663529 -2.5463771157 7.9441942299 7.1084340733 7.8385368129 -8.0624036769 
-8.8307558257 -7.3961910609 -6.8495303653 -6.6589551858 -5.6640933569 -6.5922543036 -6.5783727337 -7.126446682 7.2985234566 
8.2129258479 7.8506718782 -7.6598106545 -7.8828302408 -4.7604234334 -7.874352897 8.1347994965 -3.4388635478 -4.5098396892 
-3.9897906705 4.5937963211 4.2442875888 3.3070140648 4.0984863387 4.1471854922 3.8147209348 7.7400973727 4.2002203944 
-2.6958293769 -3.161256364 -4.1788710692 -3.087170592 -2.7820812104 -3.212453227 -3.3803053204 -3.6122627883 -3.7166021704 
-3.5333848021 -3.0154943739 -3.2830047996 -4.394876719 -4.4198042556 -4.4208431003 -4.6576068269 -3.8112883957 -3.2204356599 
-2.6101615538 -4.8935123298 -2.6110116737 -4.0532195182 -0.21308970983 -4.6487391234 -4.0546054026 -6.3909016267 -1.8445246349 
-6.2471757385 -8.672944953 -3.6753231103 -8.2417557338 -3.9608177251 -8.0130779403 -7.1633098016 -5.4423106844 -7.9894024916 
-5.8373122496 -3.9570605968 -0.65567905405 -0.84730729927 -3.7426539368 -7.3864420826 -5.5563706711 -5.5756603976 2.6148473622 
-6.9864297134 6.0207868173 2.5684962704 -6.7774558742 -0.56753523838 -1.3665790427 -2.0801686865 -8.4572955953 -8.4404015188 
0.42326890672 -8.4392877595 -8.2873993072 -8.8438099095 -8.5934460108 -2.9819948598 -8.1553008394 -4.2194912806 -4.0999982848 
-5.8768176906 -1.3901903201 -2.0372374297 -7.9549968129 -6.736297851 -4.6551993043 -9.4806807671 -5.9194914405 -1.0138344255 
-7.972096443 -4.0064660536 -8.9866394201 -9.1336723329 -8.6492205597 -8.318658402 -8.486673676 -8.9937965527 4.6672648363 
-7.8842698039 0.32425989096 -4.1404335575 -4.040635716 -9.6098148008 -9.4071903268 -2.2797916075 -9.7115698219 2.1902371868 
3.3181788482 -9.8816677259 -9.8533033343 -3.6745385264 -4.3689797197 -8.1916107192 -10 -9.6562570261 -9.9617162332 
-10 -10 -10 -10 -8.8297267199 -9.9949820258 -9.9929589171 -10 -7.6952021838 
-10 -10 -10 -10 -4.5086856948 -4.904235619 -4.8630031807 -5.2078684395 -4.2595428443 
-4.6644660835 -6.3137134771 -4.5863334295 -4.7087332064 -4.1896237645 -4.9679804559 -4.4319927013 5.9386835484 -1.1260197341 
-0.43057717258 -2.4175544256 -1.4503032391 -0.46060916145 -2.2213968872 -0.58137967795 -6.0095803067 -5.6096014741 -1.1642771076 
-4.6112044608 -6.4781526421 -5.7613835703 -5.3100179982 -1.9142804703 -1.1307097791 -6.7337764168 -0.97882810126 -6.5331658446 
-4.4977665754 -6.2723443251 -3.7941709672 -3.1159031179 -2.4177472574 3.2642794573 -4.2449997754 1.9483602274 -6.6518778684 
-2.6646866649 -10 -5.378603061 -4.6819258342 -9.9400428453 -10 -10 -10 -10 
-9.9503369983 -10 -6.2579274586 -2.9709593415 -5.3837795929 -1.9929989651 -2.9231215937 -1.3975281309 -3.1344928136 
6.8072003137 -3.5214848645 -2.9620000391 -5.8821935415 -3.1891148228 -3.0420696635 -3.0401462997 -4.9764692484 -5.5168013149 
-3.8651386355 -5.71947463 -5.7721733201 -6.3545551432 -6.4548167447 -6.0637723779 -4.4337554978 -10 -4.3393684304 
-4.7759759448 -8.5268393967 -5.1441582984 -1.3229306213 -6.8547301382 -9.2116531892 -9.2225008844 -4.7167391618 -9.2411543574 
5.9561797357 1.0552784807 1.6343185987 1.6082643077 -0.71040894176 -0.61072597067 -3.9780874636 -3.9810460823 -8.9074939963 
-0.565859316 -5.1438839427 -9.0476640053 -0.51074504907 -2.1209208305 -0.47805061593 -0.62711643531 -2.6346303229 -0.72270634695 
6.2465099346 7.6719061596 1.1890036179 0.88822618619 -2.4871687742 0.88878458593 7.7298949787 -3.4837207536 7.3440795097 
8.7750322812 -1.2630766029 7.797536056 1.3371423141 -0.84722654243 -10 -10 -10 -10 
-10 -7.1469872655 -10 -10 -10 -10 -10 -10 -10 
-10 -10 -10 -9.255938465 -9.0549786975 -6.5257272316 -6.2294517553 -1.6221726444 -5.2416196137 
-7.2797863792 -5.3364807282 -3.6058343378 -4.7741258496 -10 -2.7175658504 -2.5823034172 -4.2523258349 -1.3747730655 
-2.6198879739 -7.7507800407 -4.2187726476 -9.2466548215 -4.3150950445 -9.1987059263 -9.5262134932 -9.8164020607 -9.0839315493 
-5.5957506052 -9.532486069 -5.1025172821 -5.9424955203 -6.2798809364 -4.748021367 -1.5201401233 -5.2569042002 -4.9417472438 
-10 -10 -10 -8.3865123011 -10 -6.7543346333 -9.8966747761 -10 -7.8088493602 
-4.7835124112 -10 -1.9047684535 -6.8334930053 -7.8981262461 -8.8354750349 -1.8955583256 -6.7742130291 -5.0317026146 
-1.943706197 -6.3300581553 -8.2767926337 -1.5272593151 -8.0795445097 -8.1832237604 -8.4844604726 -7.3905780939 -8.2058784887 
-10 -8.0020519602 -7.0806824703 -7.5478472149 -4.64164577 -0.32382501789 -3.9842664812 -0.56190433661 -7.4475049629 
-4.1128282168 -3.92382829 -3.4162389283 -4.0431160111 -6.507924591 -7.544474839 -6.3976879582 -3.194001541 -9.5985024451 
-8.7771976077 -9.5197205105 -8.2644889087 -1.2222309304 -3.1849521851 -1.3249644316 -4.136290674 -8.7644613501 -3.1077524045 
-4.6615817502 -8.8103127614 -3.5876192833 -8.0564518887 -9.2914487572 -5.1171628944 -4.1438236512 -6.3780674552 -4.1294954907 
-4.3838066788 -4.8086867885 -7.0395010952 -7.3808528556 -5.4447569016 -3.8590679711 -2.646206839 -6.9727509651 -9.2424620937 
-2.7557114168 -9.3374929329 -7.6638941033 -8.5283625348 -10 -4.6948453652 -8.2117931076 -5.2710604997 -3.8201656452 
-10 -4.7945355554 -5.3347592344 -9.3106036626 -5.1707220697 -6.4264450238 -10 -7.1539411579 -8.5802688806 
-9.1445656801 -7.7334662829 -2.8323774361 -1.3131728311 -3.1416333813 -7.205110934 -3.0900170282 -1.9578536099 -1.8272174303 
-1.7699781231 -5.3488958298 -6.7840545947 -2.965418018 -10 -10 -10 -10 -10 
-2.9555044293 -4.5166761077 -4.6372237898 -10 -3.9090283196 -10 -10 -4.4665538635 -10 
-10 -10 -2.5180175666 -10 -9.0857398005 -8.2566175747 -10 -10 -2.7673572723 
-10 -10 -2.8310925621 -10 -10 -1.7112481312 -10 -10 -10 
-0.18915141999 -0.73718389409 -0.20866919585 0.22884278337 -1.5270648773 -1.984655248 1.6431213681 -0.18880311146 0.4252684962 
-2.0522707973 -1.7046593185 -1.8498850651 -1.1747446268 -1.3761037756 -0.53330707991 1.5999629572 1.5311875739 -0.16703859463 
-3.4807954189 1.5568152484 -1.6394898813 -1.3657238189 -2.0370875183 -0.036801041742 -0.25076452049 0.56606104285 0.12477546115 
-0.15618751187 0.79708138088 1.2896736259 -7.4328568212 -1.2436578463 0.92266863137 -4.095857109 1.345179824 3.5275628648 
-8.2285187508 3.1422813729 -6.299431784 -7.7144358917 0.99893069774 1.3206474433 0.72351305847 0.74296107347 4.3450641592 
4.7018080094 5.9024702927 5.3114402686 4.562028062 4.3776575196 3.112079357 4.3492695884 0.48014560927 0.22594233401 
0.78008390607 0.47989560188 0.94029897798 0.47500170671 1.1336619032 6.5296022999 3.4847951619 4.9668325112 4.3162192988 
-1.7574113934 -4.530495413 -4.5595957431 -3.7278355642 -0.98773414945 5.5470127155 0.35430526316 -1.4292185192 6.0242757683 
4.902711611 6.3066982114 0.61287393399 0.76258548656 1.4767151447 0.83187944433 6.4542417452 0.43092831001 5.0034126331 
6.3603774075 0.55905154611 1.1109900503 1.8619197296 3.2378978745 -8.6677804254 3.1098840953 3.0553382894 2.4450546737 
2.4378033762 2.4502985868 1.9089887617 2.2903953029 1.259752031 -1.598735252 -4.1112824091 -3.6354943341 -6.2845639957 
-3.5548025892 4.2003644249 3.4034068808 3.911764291 4.6148514514 -4.0267483344 4.6434759279 -4.2209383448 -4.357260337 
-6.8552861866 -6.7513823875 2.0120176756 -6.5747520242 8.532578233 7.0206799159 9.4108386749 8.4563755347 2.6096776312 
9.5752372022 2.7409433397 2.7485131313 9.3764795936 2.5258469548 8.616035296 9.377807982 9.6180289276 8.1263798294 
8.0697667947 8.2234177021 -9.5803919627 7.4855412942 7.0281342781 6.989526707 8.5689669802 3.8954928945 3.7058492797 
5.1092185996 8.6926540042 8.663223327 3.9552743052 8.4124273527 8.4392353712 8.7154162733 7.3425017509 3.8599769667 
9.2463135318 9.2524334567 8.556608094 9.3198950373 6.9435298531 8.5732989053 9.244957943 8.5617200218 8.763352142 
8.7605144848 2.4876463635 2.64141028 -6.2430621772 2.9518119779 2.530048389 3.4507425373 5.2950223511 2.9167447578 
3.1867897939 2.3629043004 -6.3299416461 2.4911023431 2.6514250919 -9.650578949 8.0869118204 -9.6838733259 -9.7645379286 
6.8856689591 8.4207432388 6.7888335209 5.2993047628 8.6452437723 6.8147543191 7.7178747689 2.0308727912 -9.5897644714 
-9.7349691889 -9.5700599958 -7.8729483982 -5.7652883764 -6.0371830912 -5.9015214851 -5.8593650342 -6.2406936129 -5.8652505377 
-6.0350998957 -6.7396097071 5.8835286033 6.032536844 6.1159354339 -5.8454097014 -5.9162416858 -5.775220091 -5.9847223498 
5.8321504405 3.6833271317 -6.1930646647 4.5777424436 -5.0208411765 5.8631771478 -5.7972923948 -5.9309647174 -6.0624502683 
-5.8081911681 -8.1867639728 -6.045067646 -6.8254425842 4.8939436757 -1.9735542795 -6.0343777216 6.3993707153 -6.1933439005 
-6.778444213 -6.067319159 -6.4916763771 6.4399930266 8.0175678632 5.3593574074 -6.7484243963 6.553997355 6.8723785275 
6.8806510516 6.4978597418 -6.5638490194 -6.164169519 -6.5853985315 6.3627191861 -3.5634754313 -7.3419748114 -4.9628531347 
-2.6873008173 1.4098635698 0.29714879226 -0.80161343321 5.0537398429 5.6677530129 4.2997721567 5.0616451409 0.70305736396 