# vtk DataFile Version 5.1
vtk output
ASCII
DATASET POLYDATA
POINTS 1244 float
-9.22459 -6.40402 -4.64199 2.86899 3.58317 -7.5216 -0.454236 -6.06712 -0.993978 
2.81711 5.93142 -2.91116 -4.41164 0.0477799 -0.617335 -3.6076 -1.45467 0.20663 
-2.80493 -2.4599 2.20471 1.12749 -1.03103 3.47793 -7.37479 -7.17354 18.3939 
-18.4463 -18.3992 1.57311 -20.9975 -4.49621 -2.36682 -17.5269 -16.5268 4.79894 
7.17003 7.57351 5.16896 -17.6462 -19.4611 9.61348 -14.6095 -11.4479 17.028 
-18.6742 -19.2167 8.09542 -10.9237 -8.84396 -4.92331 -9.2847 12.7752 -12.5719 
-8.44947 -16.2037 -9.79018 -12.5872 0.291415 -12.6017 11.9554 5.40126 12.2012 
-14.5957 4.79119 -14.3174 12.5117 3.48024 12.777 -12.0296 9.92141 -11.7934 
-9.65831 26.5499 -8.49137 -12.0298 3.00714 -13.5039 -17.6674 11.2182 1.73938 
-16.6109 0.0706588 9.55113 -24.3003 -7.49066 -4.28222 -22.5162 -21.4606 7.46629 
-35.33 -6.82707 4.74746 -22.667 -19.3187 1.91323 -21.9653 -11.017 15.4805 
-15.2025 -2.10087 -1.51905 -16.6189 13.0002 16.9655 -18.2664 0.782788 11.2173 
-20.4241 3.66706 -5.32583 -3.48266 6.15123 4.05011 -18.6214 6.85108 -14.4173 
-25.9242 5.22867 11.0229 -17.7418 4.40464 -14.2157 -0.785693 1.3973 1.22253 
-20.1325 -1.16218 -1.88805 -19.6271 21.5185 5.77258 9.6949 -16.691 0.947233 
-1.04056 -17.8328 6.38647 -13.2658 -18.6374 -5.97789 -9.48353 -29.3192 5.66387 
-22.634 -24.8764 5.42746 -10.2893 -28.6925 3.78189 -13.0835 -19.3567 14.2412 
-1.35768 -16.7939 0.427257 8.9863 -17.4318 19.9921 11.5944 -0.902956 -20.1319 
-4.91895 5.54687 -19.4257 5.53841 3.47207 -5.66796 -12.7246 7.19587 -19.5903 
10.793 5.64142 -27.3921 -12.449 3.7145 -18.4928 0.564012 1.46473 -1.26492 
0.013566 -0.608561 -18.7698 8.44179 21.1148 -18.569 5.61629 7.23246 21.3489 
-6.08822 -7.02335 9.26726 -10.4646 -9.82793 -1.52115 4.68924 4.87742 -1.58604 
-14.935 -14.5377 4.64857 4.11085 4.02809 11.8024 -8.11563 -8.01894 7.09755 
-4.30472 -3.75504 -4.58632 -0.683431 1.769 29.7172 1.79018 21.1767 3.11611 
-8.85176 7.22911 -9.49246 2.07297 2.37047 2.2178 -12.5467 6.58097 -12.9094 
-2.21105 26.6161 -2.21035 -9.55641 -4.39168 -10.5535 3.17133 6.98612 3.66243 
-4.13558 -6.04344 -4.53125 1.02582 28.596 -0.622484 8.74716 -15.3654 -11.5353 
-12.0802 -0.980765 -7.99893 1.99936 -14.7693 -15.1539 18.6683 1.53359 -6.69689 
5.36981 -20.2132 -8.73638 -8.02051 0.730389 -6.64766 7.34769 -15.8289 -16.6529 
21.3182 -0.968423 -11.2923 5.6275 -14.511 -9.81144 2.58855 -17.642 -0.210811 
-1.49735 -16.0475 18.7507 6.08553 -18.8037 -8.08792 7.03686 11.5403 11.728 
5.79016 -20.2845 -6.06355 8.60739 11.4132 11.8748 4.90946 -18.7726 -6.73645 
-8.47973 -0.00140672 0.419817 12.8529 -19.4786 7.74319 3.78323 12.697 -19.5489 
4.92921 -5.66813 -17.6255 -3.43751 7.82455 -7.71069 5.95266 -6.73726 -18.5234 
4.90713 17.8698 11.4121 4.4097 -6.15252 -18.2955 12.8375 7.07289 -7.11446 
-0.0428293 -1.22 -17.8901 21.5518 6.78595 -17.8626 11.7915 -4.77717 17.8328 
8.90709 -4.12401 -8.50793 4.32587 6.27789 3.44478 7.83379 -10.7144 -11.4727 
10.426 -12.7611 15.9831 -0.677992 -10.1938 -9.55439 7.85982 6.59925 3.31988 
-2.93767 -4.41852 -3.85984 28.4817 1.69039 -1.05172 1.35036 -9.88562 5.56809 
-15.5027 0.35225 0.620901 -12.267 10.1922 -4.77195 -7.36239 -10.5771 3.69977 
-6.0245 12.1012 4.17369 0.528714 9.15143 21.5824 1.13707 11.9991 -1.75259 
-16.4334 1.43735 15.7527 -12.6354 -1.28607 15.535 -3.71856 -3.42366 -11.906 
-16.4343 8.33969 0.178779 -14.2305 11.589 5.55857 4.0868 4.21118 -6.58924 
8.05305 11.8908 12.6339 3.0656 4.88882 5.70407 -13.0416 -8.26734 -2.53726 
-4.49409 -9.37553 12.4532 -1.65994 6.16713 5.43992 -13.2278 5.81899 15.964 
-1.74943 4.38517 -4.37437 17.4775 5.52792 11.3049 10.2931 8.26942 9.45013 
0.160545 0.570416 18.8786 6.61514 19.8839 11.6748 -7.48464 -12.2645 11.1037 
-8.78159 -12.6876 6.59009 -3.28979 -7.92315 -6.63612 -9.13669 2.71213 2.91451 
9.06395 5.57047 1.27977 -6.41768 7.15598 16.2284 -1.07926 16.7926 2.65672 
-7.51283 -13.811 1.48585 -9.16145 -14.653 -0.825775 2.05357 17.7231 1.85507 
-12.8019 2.92351 13.8759 11.6456 11.6342 -4.46684 -1.30008 13.7257 7.7961 
8.83894 12.1046 15.7801 -3.78554 5.09464 -8.26654 -12.5346 11.3169 -2.64138 
8.00427 4.26578 14.3297 -4.26102 8.48437 -7.37675 -11.7032 -8.68151 9.00258 
-9.47135 -9.94648 -2.84066 -2.85791 -2.70314 11.0853 2.9401 -9.46137 4.159 
-7.82062 -10.195 11.2945 -9.39245 -9.41847 2.11428 -10.322 2.35273 14.0547 
-11.9148 4.98032 3.74553 6.98246 8.48849 16.5216 -4.33935 13.269 6.20294 
-1.13745 -5.94241 8.0348 -0.799187 -0.0962486 -1.86407 -13.1319 2.50798 11.3021 
-14.6195 1.63536 0.0553544 -1.85188 -11.9146 -4.77384 -2.86332 0.215314 -4.03105 
4.05603 4.69258 19.1212 -0.476804 4.43106 -4.91065 8.20851 4.85363 19.7265 
0.124651 3.71889 0.616532 -12.4564 8.59494 14.9685 -1.91714 -4.03131 13.5892 
-9.18433 1.80868 8.93593 2.45201 12.1192 -3.27058 7.77116 8.40941 20.802 
2.55186 16.8345 8.31677 -12.2519 2.98296 19.1072 -9.64225 12.4626 10.9114 
6.14524 -5.81161 7.80779 -14.8934 -1.69788 1.00428 8.18364 8.70889 17.6488 
-8.12547 -0.838293 -0.731753 -10.8084 10.7358 5.89577 7.08604 -0.323124 13.7814 
-2.63961 -1.19129 -0.600786 4.31971 12.1129 3.50112 7.90212 -1.62239 0.0176978 
-3.60241 11.8972 9.34648 -4.04618 11.1561 -11.7583 4.79076 6.51702 18.9082 
11.715 5.14488 -8.27913 -9.60549 7.47422 4.62509 4.56469 6.04935 1.43064 
9.13949 4.71789 -9.67346 -2.27047 21.4204 -4.08574 -12.46 -1.13111 10.7691 
1.06957 -0.566884 -6.01144 10.2659 6.0323 14.7698 -3.59042 19.185 -2.79734 
-13.7798 6.24086 -1.16435 -17.1404 13.4119 11.7886 0.736192 9.07928 -11.2279 
10.5407 6.10785 -0.154024 -1.91151 -3.16118 -3.49792 9.50423 -2.76692 -1.52988 
-14.0779 10.433 -2.35761 -1.28144 -2.09355 10.3896 4.60082 11.9042 -9.12684 
0.681366 8.02699 3.38783 -7.61192 0.929714 -2.21246 11.2819 8.59508 4.50074 
1.62664 0.703135 11.1102 -16.5978 1.67304 -0.698187 12.2375 8.30706 -8.03334 
-1.16977 18.7935 4.16781 4.30738 15.7092 -2.43643 -17.3715 5.68864 0.438327 
6.55171 17.7389 11.682 -8.49028 3.60534 -3.75029 7.03584 12.4417 11.7494 
-3.49129 5.7207 10.149 -11.4027 2.97679 -4.68503 5.65002 -2.90098 5.5016 
1.03948 5.33759 -11.7152 -0.994082 15.0972 -2.75092 -5.93718 1.77763 8.68157 
-1.4537 18.1981 3.45399 -7.57518 1.00609 -0.802287 -3.7873 20.9511 6.13374 
-8.18722 -5.84777 14.791 6.88827 4.39764 21.6839 1.43368 18.3585 2.01117 
-11.2715 16.4012 4.08686 8.52169 0.54075 4.60636 1.7802 -2.57128 12.7046 
-1.13142 0.276186 0.145456 -8.71935 5.95345 14.7064 0.774722 -4.19678 7.84721 
-2.73473 11.1027 -9.19049 -6.92457 1.37362 15.8513 -9.58062 -2.56901 -4.39208 
6.07696 12.491 5.37018 15.014 -3.005 1.2389 8.93765 5.71762 0.60813 
-7.94499 0.362881 6.43224 7.56306 -5.58247 -1.75402 5.18247 10.8487 6.21576 
-1.485 -6.30658 -2.75155 -9.1337 3.39364 8.99906 -21.6385 -2.70791 3.17487 
3.49241 1.52494 -8.06814 -8.21176 9.43266 0.621444 -1.11336 4.90898 14.8696 
8.48991 2.38802 -4.61751 0.150285 -3.91277 9.08636 -6.66176 6.75288 1.8795 
2.96921 -3.28496 -9.9363 13.5737 9.47961 4.56519 -1.40456 12.7863 17.1465 
0.967026 16.1238 -0.220921 -9.22492 3.26966 3.8033 7.02674 3.6506 -1.03299 
-3.05888 -6.32443 16.3762 16.8986 8.08741 10.3634 -8.83991 3.72467 1.57889 
2.20823 -4.33629 12.9715 -20.7845 -0.298565 6.8774 7.72198 2.69619 11.9924 
0.722093 4.01479 -1.66898 -8.67668 5.69656 12.1187 5.32629 -7.20366 11.7387 
5.2822 0.561714 17.41 -0.734129 -2.4419 -1.3949 0.164299 2.51623 24.9164 
9.60667 -2.64631 14.3586 -0.753273 3.44141 0.455869 4.16426 11.8279 15.8166 
-9.18616 6.60791 10.398 -5.61089 7.03378 4.16676 6.26123 -0.362405 13.3666 
6.58776 9.8934 -4.27921 5.86061 -8.03729 1.81339 4.3613 16.9433 6.44013 
-10.2426 0.650453 15.2966 -3.12627 2.16544 -5.14532 11.6763 -4.34776 11.3327 
-14.2812 5.97649 14.3703 12.4921 2.11099 2.95963 -5.52542 6.22777 19.479 
-1.25797 -6.1659 11.1834 1.97738 8.30913 -10.2522 -5.01254 -7.18875 -4.70989 
10.2132 8.65033 3.21416 -12.702 2.86998 2.27561 3.13268 0.838281 -2.71943 
-2.04224 -9.59712 7.10786 12.5607 -10.6972 5.00774 13.4179 -8.73914 5.76179 
3.30138 -4.46132 -5.94945 0.415826 -1.18081 -7.62802 7.78655 9.81615 5.17272 
9.12422 14.6917 18.456 10.2222 7.75298 -5.46054 -9.63733 6.78119 12.8918 
7.55546 -1.04654 9.44644 7.44453 -6.50999 -8.11861 1.70998 1.60713 7.38858 
-4.60139 8.37394 3.14199 13.1364 -6.46408 -6.99923 18.7441 9.80575 12.902 
5.55547 -7.88333 5.2713 0.0751998 -0.299498 11.9317 8.50564 -1.93436 -1.83715 
7.19265 2.02601 0.97043 -2.40319 2.65367 14.8661 8.76136 0.840272 -6.86666 
27.4847 4.34233 10.5237 21.6277 7.20853 5.5765 14.8905 -0.319447 17.3671 
12.4531 21.4414 13.677 11.9401 -1.49858 17.4648 2.63066 -15.6543 6.6002 
7.59826 -4.62529 -6.02387 3.5043 2.33412 1.94653 9.29302 -0.633005 -7.86095 
8.28048 0.774597 -7.37838 2.82597 -2.39848 -1.08969 3.12917 -15.0695 3.82892 
6.83417 -2.84392 -7.11851 12.9282 17.4905 -0.73494 7.44143 -7.24548 0.908882 
13.6905 3.07245 -9.21301 2.09422 13.0252 0.593948 15.121 8.45253 17.8717 
4.72353 4.1658 -7.58436 10.6231 2.38337 -9.48731 1.22755 8.60722 10.171 
7.01135 10.2766 -7.09515 -4.88425 -1.13478 13.7819 0.274105 -8.28755 2.70274 
3.61633 12.3832 11.5848 8.67737 8.45701 14.4993 2.52473 -5.57865 7.95487 
-7.54257 -2.34039 12.1367 0.717332 1.25129 20.1222 0.0501559 4.17917 4.26312 
17.5214 9.21665 18.2699 6.70557 12.1625 12.4 19.257 -5.09607 12.2819 
6.59164 -15.3591 9.87239 2.07863 -1.12007 1.39263 0.202861 -0.517276 7.76075 
-4.80432 -1.10648 -1.95032 16.5767 -5.4224 -0.918674 15.1192 3.19046 20.7346 
9.42897 3.38256 -6.19822 17.5084 3.31001 19.4632 10.216 3.01468 -0.204005 
-2.85013 6.67093 17.4232 9.95089 -2.8844 17.2856 0.765861 1.05722 8.28059 
11.0803 18.1721 1.41071 16.3613 8.76599 21.1257 5.12875 5.44192 3.26418 
-1.83796 8.67443 19.018 5.85873 12.7383 14.6917 16.3056 -3.36307 11.994 
-1.82765 -1.63587 -3.36558 18.2917 14.7569 21.1249 -6.35853 8.27605 2.25524 
0.281617 -9.43325 9.63737 6.76563 16.2992 13.8737 14.9396 -5.3477 -0.776837 
2.84362 -12.1966 4.07204 5.82198 13.4638 3.12114 21.3158 13.8924 2.93275 
5.11179 14.4259 -8.23227 14.5288 7.14354 20.7583 18.3548 4.3738 -2.74494 
[...]
CELL_DATA 2484
SCALARS scalars double
LOOKUP_TABLE default
-3.9197745431 -7.355783854 -9.3006054041 -4.0494834009 4.5235580339 8.261132855 3.6642959011 -2.1088789446 1.3739339668 
-6.1654738468 -1.0686314412 -2.9079147134 2.7749409418 9.3268113674 -3.0459910601 -1.6026469493 -3.2303343779 4.6194085763 
1.7849434143 -9.3304912496 -0.092023562683 2.8517521423 -0.80519060885 -9.2611974971 -7.0668009322 9.9730391349 7.4697483016 
-9.8752921391 9.9466009079 9.7456311493 9.6397350901 -9.6708418437 -9.9807444959 9.923776614 -9.9948244867 9.9959096519 
2.8983850025 7.2797131632 -8.4972791624 7.0237300149 -7.8709071154 9.3448782656 5.2852801234 -7.4885784635 -1.2893939363 
1.7772060537 9.5350244512 -4.4486527752 -5.4637677584 9.6364143262 -7.2973455944 -8.5752581418 9.0868214784 -2.0454855898 
3.1793431751 -4.745682678 -5.6288666722 6.509337653 1.361184354 -6.9030125469 2.4097411026 6.1687136391 -6.583304413 
8.2178789147 6.3528005373 -6.641609107 -6.4017858705 -7.0877680216 -2.5834255923 -7.2602554766 4.7498977765 -3.6838045966 
9.9287101161 -3.7750028026 3.6452721168 -6.6462366014 -9.3730693497 8.015157166 -5.047037632 7.1162640353 -0.44288221381 
0.48774677114 -8.158374835 9.6283598771 -7.5835821024 5.9703831224 -4.2076359897 -9.8021061506 3.0653073101 -9.9948106491 
9.9151450105 -8.4621416848 -9.8402094308 6.632777218 8.3659319597 8.4829517699 4.0516620398 -9.7141725533 9.9484974299 
6.0714596392 -2.0447449377 1.0427262715 -4.7324593185 9.829788247 9.8839832302 -9.9172608364 -3.4312821209 -9.9398104245 
6.5748646906 -9.5402515422 -9.4775401785 9.464453239 2.0043698359 -0.59891978688 7.2764434878 -5.0898374208 -9.790780316 
-0.96880277955 4.3060177198 5.2505105212 7.4204460369 9.9322502365 9.9875488737 -9.8485790315 3.1640811531 6.7360685096 
1.0783856726 -8.2015920848 3.4026401307 -4.5905036388 -4.9716617096 6.7166927588 -0.92688524774 8.6839867561 1.3065563858 
-8.6332662956 2.816892155 1.6412798383 -2.8425944921 -4.5838079338 0.25093352014 -6.7054816594 6.5529066029 -1.0329890046 
2.6791063931 4.9277843272 -0.88703018199 4.8092975142 3.3594317737 -8.2772460295 4.8156515381 -1.3130687581 0.46593212083 
-8.2895689524 9.6341347106 3.1608540442 1.8562864599 9.6051207338 6.6484318354 -1.8405649822 -0.83406173309 -0.52245569418 
-9.6456024383 -9.5374700786 -8.2200952626 -0.30334071122 -6.5831331779 -0.88517639382 0.82734019319 3.5397845632 -0.99260383363 
-2.8758580792 8.7915071351 -0.75849521712 -0.88405237376 -7.8177959349 9.8575948988 0.5599731244 7.9298977242 -2.1591452919 
-1.9368900066 -9.3441566178 -2.3270460042 -6.1764630681 -8.4070498741 6.0518932745 -9.518873445 -7.825186778 -3.4018955984 
9.495008315 6.8377184329 -3.3378318827 -5.3539715873 0.86370510294 8.3012524811 -8.856873548 9.8688639619 -9.7345846822 
-2.8416934558 -0.98376540392 -0.51008047097 -0.17282814157 3.4063008755 4.4570818164 7.4941073678 -3.3577462258 4.7600913543 
6.500251514 -0.76334871691 3.2691290796 -3.6805892661 -1.4318851524 -6.5670764621 4.3501000016 6.2377820251 4.7212738487 
5.6598090142 5.1907592287 1.9499330847 -5.2331474149 9.2529023453 1.2058354501 6.8438835847 -9.4464849081 -0.65990186605 
6.0842823459 -9.2485087477 -6.5138789178 -4.6154855761 -9.5779959363 -9.6857233798 4.2092806464 6.6697673852 -1.7919463771 
1.332767474 9.3470708236 9.3014898655 -8.5995421048 -1.9444815874 8.9330390804 5.3050662415 -3.6495199321 -5.216032485 
2.377679204 -0.62356694988 5.172697731 -2.6121720365 -8.6927934889 -3.9130875418 6.4018876954 -3.822770987 -7.0263791812 
7.5773187995 4.4459599127 6.5968603703 0.23487950731 1.6978342152 6.4652575016 -7.3378318458 -8.6626499676 -6.6324018274 
7.5042823675 2.024190578 0.58922489947 -2.5838317026 0.32103726552 7.4898353675 -0.63763094062 5.8146330146 -9.8516668321 
1.260279261 7.361325156 4.4528498935 -6.9233757024 -8.1875050103 9.0536327616 -3.6516825918 3.0611241635 0.61434976807 
-4.614517719 -8.7831879705 -3.8112718695 -4.7638672042 -9.4526768889 -9.2921349529 7.653444176 8.2933696048 4.952251884 
-4.6226433251 -5.9722287778 9.170253083 3.4745162876 -7.8147769523 -8.464846706 5.323334299 4.3050260312 -2.8147421131 
-0.75134981881 -1.2272321032 -6.4614593872 9.2418207753 -5.2541617232 -6.829463299 0.33223014801 1.5079440339 0.56932872535 
2.3520759998 -5.7267035815 -7.0506150171 8.1026200673 7.0478888065 4.4427404357 -6.5578439693 -9.9467240961 4.851635713 
-7.1092067845 8.845616802 -7.3218620565 6.7272345689 5.467579318 5.9687455544 -8.9710501575 8.4564191832 -9.666692781 
-9.5394838146 9.0904483605 9.3943417139 -8.9003309378 -3.747180503 -8.9433649489 7.6174494904 9.5889233302 8.2310469749 
9.7299549444 -9.8889260907 -9.975867686 4.5145764838 -4.8424858784 1.1826229467 -8.5068793953 4.7800349097 1.681083723 
3.8195081553 1.3313256813 -3.3354391085 -6.6021890783 4.6571310881 -3.5370181535 8.1743469837 -8.8672349167 4.7121736453 
-3.9546428881 -4.2515636361 -9.503739551 -4.8840715237 9.1597414139 8.6461389929 -8.5545689253 -6.5487076918 1.8365296338 
5.4964634785 -1.5272974435 -7.2459432733 3.238873895 3.9388467671 5.9091951914 7.7677697458 -2.505094282 -9.0964189227 
3.6042164726 -4.3557993486 -9.4162948044 -6.9036849946 4.2607524019 -8.9357587941 -9.9712608936 -9.428358121 9.9044811351 
9.1420878528 9.6656858923 9.5320701949 -9.2744201854 6.2358118196 -2.016479139 -4.0859184739 -1.2599302382 2.4835822554 
6.5177014777 3.2882509971 -3.1296762318 -9.5702317725 0.32106466113 8.2569388525 0.37699966494 5.2405804157 5.5394176032 
-0.93296357992 -6.5087626881 -9.2524087656 -6.5837536271 9.1021164758 9.1009488347 3.4944878695 -3.7290995248 -4.9463765055 
2.9831032755 5.2296788048 -3.9023289478 -8.4724556118 0.61024045241 4.8077008498 -1.525397672 4.8609587676 -5.6405163459 
-2.2194007688 8.2614517557 -5.40075177 7.0817529988 0.7067547648 0.3640415879 -4.2116807596 -3.8633690998 -0.2335308627 
9.8053221421 1.6886646739 -2.8413945499 -5.3043685128 2.1393647633 1.8287286306 -6.0514768871 -0.28015065094 0.18924751393 
-9.7570115288 -4.9549019077 3.9748028 -0.59795150536 2.6043802081 6.8288280258 7.4562175162 -9.992621711 -7.2279289491 
9.8815192753 -9.9947547837 -9.7302198245 -7.4262901373 9.8237525447 9.9924241657 -3.1325703932 4.1945567129 -4.6788018838 
-0.79876647965 -5.987786808 3.6585347933 -5.5280336687 9.5635580107 -9.9928023789 -8.7914276271 9.8093520638 -2.1759012798 
-3.698376397 -8.9211120495 4.9029998413 4.804625816 -6.936232359 2.6753323719 -3.9234068758 -4.4544769822 2.6483071182 
-1.3876491213 -3.2794735463 6.2566818742 -6.8661429749 1.3711847744 1.7238353939 -8.7034617583 -2.4817917682 2.7561722549 
-8.9717351428 2.410560388 -6.0766027897 9.5387080631 5.2730562305 3.484486844 3.416315305 -0.66036311969 4.9238883382 
-1.278017935 3.097530038 7.065586516 5.6983421188 9.4835124388 -9.5582912752 -7.150373463 3.7205168891 -1.1835705228 
0.35735421491 7.1911968905 -9.1969341619 4.2673481897 -4.7464741074 0.68273164359 9.7403650381 -2.4944249413 2.2910611135 
-9.5626650385 5.391739999 9.4087799202 -5.7935792738 -4.3661658555 9.8368073652 -4.6797158113 -9.9708157894 9.7077929567 
-8.5383884297 0.62231067024 -3.0066523597 7.6678609108 9.9390822893 -9.9065304236 9.9010282175 4.8652064893 -9.7553112037 
-1.6944790181 -4.2081854053 9.7460884967 -2.1879641762 3.5876902672 -9.3823333264 1.2054244233 5.8545137563 -5.1014303723 
6.617163036 -8.8286526848 5.69153285 -0.89586662471 -9.6307345104 1.2678916325 4.779248085 2.8060947926 -2.4818226249 
-8.6822998572 3.6255838684 2.5789637451 9.1335342663 -4.0943557118 2.6190162151 2.9534979742 -8.8629044269 2.6644328225 
5.0566183272 -2.3927411233 4.4401771503 8.4106077355 -7.1950311569 -8.0382781543 7.8597319959 -9.1546915038 9.9893638367 
-4.77181715 -7.7459280409 2.6360943818 -5.2824226904 4.8354278004 1.8655205802 -5.0599423046 -0.17692422267 3.0101879914 
2.0204544544 5.940896865 -8.4204124816 -2.3848493899 8.9319748712 9.4377580131 2.8710142795 -0.6263198215 -7.6729451558 
-9.7841692523 -7.414492293 -1.7241137184 -3.5676369018 8.3128619904 0.84561306852 2.4819034286 2.44993074 0.41882939494 
-3.317011421 2.1769302029 -8.3341882057 2.4557380673 -1.2316950468 -8.5285569941 -9.0810605781 -3.619695158 2.4225072044 
2.0783806764 9.9975727399 5.6649990039 0.27344759364 -1.81301552 -6.0204554729 1.6596332729 5.4092580487 -5.8740794375 
-0.1159797374 6.170573081 -8.3520250139 8.730796858 8.1295753138 6.6701110517 -1.6127285153 -2.4456049069 -4.7633954657 
3.8353443831 0.64288228262 6.1631158306 0.54790156474 -3.5002436165 -3.8987682992 -8.3465514405 3.499658724 -3.1754549198 
-6.3026834618 1.2458487106 -3.5507804053 5.1383349688 0.091480035592 7.2370741579 -5.2811252572 -7.435468576 -7.0300803577 
-6.1633329091 -7.8053648346 -2.2463403465 7.8366708447 4.4324459582 -2.3056798411 5.3671239747 -7.1993503282 4.3635855668 
1.2807273889 7.3275964895 0.22010927374 7.2183632908 -3.150461541 8.2901185454 -2.6917651915 -1.3370896244 -4.493608968 
7.1680023875 8.5727778844 -6.5328723115 -8.1112212322 9.0607158157 9.8629644812 3.1254157158 -9.6532316958 0.038811547002 
-6.3633039409 2.3906369131 -2.3198209837 -9.8961482077 5.8154375737 8.956157406 -8.5491801724 9.3369910405 -2.2155218209 
-0.57229087458 -0.54732495139 -6.6166486841 9.3084782775 8.3337801108 -8.7390575151 8.3570821597 9.5381621708 4.456390171 
-9.7051474971 -4.9845768762 -4.7886065571 6.6837817621 -3.1997596768 -4.2317218853 -5.6934548814 -2.760147546 3.8400812204 
4.7233209809 1.4570478785 -3.8823320037 -3.2067668854 -0.013890835118 9.4951044733 8.1752741622 9.5451536906 -7.6531722605 
-1.3402632257 -2.3545277029 -0.57605603519 -2.7615600144 9.5181545679 -6.24223559 2.869197392 -7.1112945761 -8.2677524638 
-6.9834989258 6.7095595504 -8.2084973409 -8.7464171642 9.9336046239 9.2831586754 -3.494040582 -3.3948288251 7.7817160101 
-0.54399019987 3.6978897556 0.18280361707 -6.0709284277 4.8472078715 -0.6583292672 -3.5019016694 2.4497674564 0.29741867901 
-1.7823705186 4.8488963517 -2.410757843 -7.8508013629 -2.4631209707 -2.2250798296 -5.6235497996 0.27865484185 9.2547525629 
-3.9373059875 -0.40791114386 -5.827470907 6.456977784 0.1758917726 -0.47349041162 -6.8877740866 -7.1944953412 9.9859708687 
3.8272025118 -9.2052154527 8.959622943 -2.5477900192 -8.2168945627 2.3991329635 -0.57478749843 -9.9952389421 -6.0544414653 
0.024540005306 4.1726250622 7.8185466624 -0.16020678726 3.9785932677 -8.3730312662 5.4733936608 1.2736817843 -3.1487369894 
8.8438159347 -5.963634289 2.9883022001 8.1832772362 4.9337915213 -2.1913475502 -6.0731956955 -2.3050733121 -4.7337772204 
2.0295727953 2.7619594514 8.3062338923 8.2515509412 -6.1166888371 -0.36975071117 -0.12040948303 7.1911576551 5.4472266366 
-2.8495367521 -5.3899502813 -8.7463712474 0.39138885684 -0.29613394531 6.3955103372 -8.3640673976 5.4858832401 9.0290501755 
-5.224183416 3.8365890512 9.6180947538 5.9604004473 -5.3579241805 8.9770301844 9.9381968498 9.645889108 -9.8739106439 
-9.0165707046 -9.5928965781 -5.9662359417 9.0827254922 7.0685989869 1.0293758551 4.918053751 -2.2497366736 1.0239704045 
-9.666820476 3.4448766731 -1.865224696 9.7200399333 9.2148756647 -6.0985226511 -9.8374860692 -1.033388692 -9.5055252998 
-4.4233129272 3.4862440886 9.5167268404 8.4990530333 -9.0112364215 -9.5185789657 -6.3219995516 0.9336218405 3.345006639 
-1.9688085296 -5.1593821762 2.6840709652 8.5186404946 0.36201171866 -4.4320096538 0.86530514131 -8.1616910139 5.692230135 
4.2211012866 -2.819771305 4.9789609045 -4.9987132613 -3.5970344352 -4.1522343818 2.5018189298 -0.93054981101 -2.4124785767 
4.3550916147 3.735067026 -0.7367380987 2.0563804536 -6.2781125339 6.8811794369 -6.0024360569 -2.5505487341 -1.3188892641 
6.1829223839 -2.8135109829 -6.6214466154 -2.5560475375 2.961672709 -8.2850388776 4.434988192 -3.8492121106 -1.715696757 
4.1146163199 -2.5326566975 -0.24141428036 -3.335253964 0.21768461923 2.4084539504 0.92917508766 0.78934028186 -1.2164823545 
7.6681899237 2.9869168367 5.3126937527 -7.4408705202 7.3588369321 -3.2420245793 -3.0272560707 -4.2007607345 0.94704873554 
6.0691276795 -2.1774113842 0.95190717136 6.544231954 4.971667173 -3.3846911129 -1.7909577704 -2.5479212684 6.7185694895 
2.614586894 -4.7301973125 7.3941718987 6.4758915269 -0.90962416253 4.8693732334 5.9872336979 6.2548515393 -9.0386149419 
6.3912475793 7.9950349304 -5.56180902 -5.8848091912 8.1030256078 -8.6423810266 1.0723355796 -7.2151158613 -0.1134795407 
-4.6475628075 4.7117267093 3.7827089751 -1.6633804931 2.9295978232 2.3734382553 -8.8282825604 -0.79989788448 3.9369338025 
2.3130951908 -0.28311541567 -1.0061952064 -3.8166914211 -7.0024309936 1.0200206118 1.4386693477 1.1675591701 -0.59406427324 
-2.720968613 2.830643382 1.4123412422 2.7875061306 0.39123191102 -6.7714671325 -0.089692889695 5.2105758581 -3.8387468983 
3.4420658331 -2.5873743783 3.813117399 2.2324039254 5.056868957 0.10885198789 0.42450371518 6.3339728163 -0.052750374533 
2.7551237751 -0.83867414207 -0.41817547308 2.4566981687 2.4927361468 -0.1286717851 6.8405050803 -2.8953751049 -4.3870494831 
8.6013325132 1.7764005035 -5.2136457537 -8.3190672634 0.86320802782 -2.2003727859 5.1129708097 -3.2938884038 0.31277636546 
-9.2827863188 5.6028708597 -1.0864381575 -9.0081882753 -1.7004688416 6.6335583515 -5.5029165868 -7.8304609268 -3.9514360928 
6.0763924657 -5.6167243731 8.7582290533 -9.0541296932 8.489860379 9.8787541097 5.4103733284 3.1906960086 5.2256018791 
5.9641236877 -7.8916347138 1.3857792211 -0.99651253829 7.5841617715 2.0682660908 -7.6377674388 -1.0445318655 0.69070907752 
-0.69306506168 0.71782083119 0.25600627688 -7.1535908898 -0.16819282945 -2.9186067072 1.1855107045 2.3361808198 -3.0962608839 
-5.195064971 0.82767404 -6.7999803385 8.264851122 -4.5560785705 1.3162184343 -0.58838249597 -0.93671142589 0.73958662711 
-2.8942674785 -6.8276533762 7.4121521858 -2.6266971704 -2.0848717366 1.9934605323 1.0140395659 4.5282401466 -1.53324979 
-5.5488088859 6.9896544095 -1.1817288002 -5.3768423648 1.1719529102 -2.1729390969 1.8716505505 0.12167194846 4.5312920536 
-0.043382189206 2.801278463 0.9914937753 -0.38441364439 -3.6390067685 -7.5121690246 -7.4434028493 -7.6197594465 7.0041949998 
-1.9212873983 -4.3682187604 1.9667923618 -4.163161506 9.1087393386 -3.1358155783 5.9652734378 -6.4161087046 -3.3332109233 
2.0971155019 9.4655885261 -1.7393074037 4.5661601756 -5.9838964977 -2.2071077158 -5.6281713687 -2.0787616924 -0.2842719472 
3.5757843179 1.8819469867 0.38858355785 -4.0038256628 5.645262186 -1.278462059 1.4871014724 4.3031056021 -0.97653314217 
0.7997502352 -4.4882353829 0.061829596515 2.6502037031 2.3092599742 -8.4985160595 -9.3762197499 -1.1137225565 8.478525133 
-4.2816842449 0.19112876153 -2.958352717 -0.08979389473 8.3608283206 4.3270787056 -1.7624664673 -4.1997514062 2.0539173166 
-8.3460008286 9.3000243616 -4.807291285 -6.8634014979 1.0924098267 0.54726090358 -3.775188615 -7.1456912717 0.87816273748 
4.5248660039 -1.5084827618 4.8339943921 7.4595789754 8.5487366669 1.8155857655 -1.9377841298 -4.0099526068 -5.211838369 
7.8225273009 5.9844970474 6.7333711944 3.0204303476 -1.8433102539 -2.8186589481 -5.7899546101 8.5946471596 1.9371150494 
-5.4370475745 -3.0577004805 -9.60289612 4.1455815437 4.8718960355 -2.6529440768 4.986586757 -0.88519544539 3.9307752928 
0.203824303 -2.6537024819 -1.1992029326 -5.4618246717 3.0415775819 0.9383819179 -3.0234321267 -0.67252345734 9.5131592133 
2.6782878253 -3.9040411649 -0.87922874716 -4.3779686897 5.5563585346 1.0976256682 3.9953092394 -1.0898191345 -4.857926817 
-7.6195213188 3.9653002502 3.3826636596 0.69437094258 -3.7724455607 2.2613682696 -6.1270756485 3.8089959463 -0.53255191436 
-3.2194848467 -3.4876586929 5.4466029834 6.3670743485 -2.8820797495 8.5244068864 -5.8038743407 2.1544224446 5.7576305999 
4.1632310396 6.3342748739 -3.0747458462 -5.5495341409 -9.7966451187 -2.9495639868 3.8213126127 -1.5037526676 -7.0167520032 
-4.1171510208 9.8711987152 -3.4759984969 -3.2725621306 7.5814092415 -6.1671160296 -3.1236818687 3.8665045319 -3.8499844096 
3.4831708992 0.42896291928 4.7281727712 6.0731363748 -6.9474343982 6.9201898305 1.255483057 3.4644198777 -4.2414676583 
-5.3161498896 2.9745805958 -0.72429978147 -2.6195515953 -6.0613675522 -5.6570950667 -4.7723992784 6.7623503558 3.3949654417 
1.2023907543 1.0290825521 -9.8916302165 -3.2399258903 -0.28585054457 -0.37963390217 6.4759257894 -2.1675353332 1.3148241208 
-8.4015442547 7.4757284556 -9.7558476314 -2.2157950882 -2.0908909457 9.2800519032 7.0820667406 8.6747384123 0.84083884932 
-8.7066733728 1.8086956799 -5.3221391081 -7.9630635423 4.853348724 -0.8466226749 -4.8617556126 -0.13888714994 3.5707365656 
3.5850563036 0.93032532706 -0.75527867826 -3.4519653019 0.95747013003 -0.17354094847 -5.5493867573 2.6281527483 -9.7580744524 
0.23227986096 1.9555126393 7.2638701302 1.4744465294 -0.35598030407 8.185913343 0.66839645047 -7.4395170839 2.0878431862 
8.5625455451 0.43020353204 1.3087465669 1.3012806113 -0.083503506447 -0.4957323216 -1.1360284614 0.94115608313 -1.1778069498 
-2.1907635232 -1.8279872205 2.3151337742 -2.5264097459 5.2091138847 3.5276834459 -3.5715578061 1.7171952488 -3.9716032261 
8.4189714465 8.5799586469 -9.269582039 6.161828821 -8.2747249433 -1.8271202739 3.186571696 -6.3393016643 1.4535094923 
3.8573768783 -0.7114813674 -5.5477563658 4.2752856495 -3.2355433827 4.6575379342 0.78509195271 -9.2289178871 -5.4169417786 
6.4357344332 9.6075764176 -5.0003556717 0.62665220487 -1.423913192 7.589565406 6.6516999906 0.33109446123 -6.7823219637 
2.3658881796 0.56396408697 -0.3519792511 0.93575523651 0.58474924176 -0.76908095967 -1.2496932769 -1.880378571 1.8833359474 
-4.9549850087 1.7848236855 -0.81506874038 -9.0471798355 7.4534477534 0.54071260088 -5.5440206069 -1.0097198482 6.0198878147 
-8.264857906 2.2686260368 -3.5216962027 6.3666846467 1.8925611423 6.3143431576 -6.2526302141 4.5789314328 0.54001418071 
4.9354208551 -4.1841161052 2.153269961 -2.2092827859 -8.7301947514 -6.6549381733 5.5961571795 1.9229440892 2.0215413615 
-4.2101373334 6.0457412964 7.9492448305 -0.33066578825 7.7466971375 -9.06433425 -3.6003366179 -8.7061174269 8.3257251256 
-3.4724856971 3.0513151407 9.7420670677 -0.13316014723 -1.0625030913 0.17230858177 3.3650244062 -1.8968158971 8.6574823828 
4.6014933601 -5.1955915573 -5.6052612725 -7.270210011 3.2776389298 3.6072833129 0.48600923745 -1.9736173743 -1.8396780877 
1.7032030207 -5.9033430781 3.851954496 5.6179693659 7.4267065956 5.0043634643 5.4728644598 -3.0303767808 2.0367382377 
-3.9381948196 2.1365125908 -4.6247621986 -3.4134480139 -3.2374793105 2.3314000946 2.6967312715 -4.513742906 -0.70592998712 
-4.8803880652 4.8789313267 3.9345896304 -2.0850432608 8.7630855883 0.65787254745 6.5119393708 -0.14836834957 7.5442759238 
5.3834387282 2.7130097403 -5.8944868942 -6.1333460217 2.8868407702 -7.1056440535 -2.1849773053 6.400370162 4.6615397975 
-6.2965707866 -3.5791317071 -0.87194136953 -0.79093745675 6.2869159411 5.5767864241 -0.53229341207 0.64053105285 -5.594531725 
5.8347282627 5.9659377535 1.3214178833 0.48949255828 5.4366918796 -8.8131966519 9.8088614394 -7.3910884725 -3.2491992554 
-4.210248306 0.34545340142 7.9476811472 -0.83892194754 -9.127284743 -3.4993921321 4.7272635082 -9.9604377398 5.4211156401 
-3.6972230075 -4.2883055398 3.3348250598 -5.1020502028 -0.80164648918 -4.4054604128 3.633613186 -1.9039756148 -3.6280315148 
2.4424434305 2.2100423 5.1995724647 0.85002068897 -3.2031778591 -1.1375180783 1.5892221551 -0.82350260251 -2.1354270155 
9.0157046716 5.0728763588 -6.115326686 2.7175991603 4.8924101724 -6.8422392441 -7.183484939 -4.7677863328 1.6301262735 
1.2508348092 -9.5406205214 1.7303106933 -9.3659446388 5.8743991759 -1.3945849788 -7.1340183962 1.1546522412 -9.6518475583 
8.3851424609 9.7026596864 6.3111770289 0.51550675762 -6.5354747388 -5.9698746709 -9.9594602786 8.0019001357 5.9448946151 
-3.6462707319 -5.0595763073 -4.5619509459 7.2285066954 -4.2226993672 5.6932963891 -5.1383259698 2.4149253146 8.8053082251 
-5.4990139988 2.1923145189 -4.9258796683 2.9997252562 4.0547252968 -3.1152482659 0.94611697221 7.6788218116 -2.9343582406 