# vtk DataFile Version 5.1
vtk output
ASCII
DATASET POLYDATA
POINTS 1244 float
-10.7685 -6.84016 -5.19445 2.63682 4.21754 -11.5064 -1.36939 -7.65478 -2.42783 
4.09507 7.40172 -3.81275 -7.43044 -0.292285 -1.05401 -5.40476 -0.19602 1.46359 
-4.25511 -4.21044 3.37242 1.0468 -1.83462 2.9386 -8.47737 -7.92003 20.5524 
-19.9109 -20.4243 1.6983 -22.4117 -3.13862 -3.44497 -18.6285 -18.1569 5.12907 
7.72488 8.38797 5.22115 -19.3535 -21.7429 10.5637 -14.3383 -9.12812 17.933 
-20.791 -21.6177 6.84952 -11.9847 -9.37544 -7.09856 -10.4641 13.9863 -14.5804 
-8.87148 -17.3515 -10.3092 -12.947 -0.820856 -13.0298 13.3971 5.27068 13.309 
-16.3257 4.65765 -15.4594 13.8831 2.60779 13.7531 -12.5296 10.1949 -12.019 
-9.29663 28.3188 -8.63288 -14.0061 0.902348 -15.6018 -21.8362 12.1865 4.00948 
-18.4595 -1.05975 11.0675 -25.1735 -7.1175 -6.36577 -21.6319 -22.6432 8.62478 
-37.4213 -5.086 4.74741 -22.5345 -21.4677 0.0682914 -25.0795 -11.1997 17.0551 
-17.1292 -3.78377 -3.25113 -18.366 14.0857 18.4071 -21.8113 0.42406 13.0495 
-23.3971 3.79215 -6.52185 -3.46008 6.54828 4.09616 -20.4599 8.18594 -15.9387 
-29.0788 5.24969 12.8475 -20.4181 3.19782 -15.497 -1.0445 -0.107124 0.68512 
-21.6551 -2.47727 -2.40517 -21.0291 23.8964 5.32906 9.89988 -21.1918 0.6501 
-1.99833 -18.6451 7.79054 -12.9898 -19.014 -9.49671 -7.72162 -30.7147 6.73821 
-26.3132 -27.1041 6.30492 -7.55797 -31.1119 1.77929 -14.4861 -21.3755 17.7072 
-2.76515 -18.9287 -2.07712 9.44267 -19.1613 21.1159 12.262 -1.93983 -22.14 
-7.56711 6.83791 -22.9421 5.57883 3.65049 -5.69359 -14.4591 8.44621 -21.2555 
12.9051 5.57984 -29.1592 -15.8428 2.62544 -21.3594 0.46156 -0.702734 -0.157441 
-1.01545 -2.27934 -20.2518 8.41123 23.8426 -19.3034 5.17676 6.97234 22.355 
-5.55594 -7.30144 9.83098 -12.6887 -11.3471 -2.11616 5.74418 5.58268 -3.84337 
-16.0164 -16.8488 4.42381 4.602 4.61325 12.7518 -9.81551 -9.73421 7.50601 
-2.56939 -2.26477 -5.57136 -1.24769 0.911258 29.9517 1.23132 22.7854 2.12339 
-9.67069 7.5822 -10.513 1.34749 2.37266 1.42647 -14.3373 6.8528 -14.7516 
-2.16378 28.9665 -1.81224 -11.1061 -5.69958 -12.128 4.43999 6.48012 5.37894 
-5.43076 -7.70951 -5.56331 -0.0859693 31.227 -1.7322 9.37013 -16.8178 -13.1972 
-14.3156 -0.764909 -9.05945 1.46969 -15.8952 -17.2881 20.8562 2.11975 -7.03361 
5.70445 -22.9972 -11.0869 -10.9528 1.00272 -6.42984 7.51888 -17.9434 -18.944 
22.0744 0.122596 -11.7163 4.52093 -17.4715 -11.0713 3.13476 -19.3404 -1.55763 
-1.99769 -18.5947 19.9404 7.51368 -20.0996 -7.13228 9.06073 13.5646 11.4588 
6.73363 -22.6503 -6.44445 10.276 13.4105 12.0406 3.08691 -18.2565 -5.83231 
-11.2616 -1.03347 -1.77172 11.776 -22.1584 8.68777 4.39438 13.0631 -23.0322 
5.57621 -8.10379 -21.9507 -3.65324 9.01168 -6.88643 5.95438 -6.79769 -21.5479 
4.92416 20.2074 13.6114 3.37713 -6.61828 -20.8869 14.4862 9.61294 -7.08291 
-2.03938 -2.35582 -19.0489 24.5246 6.32351 -19.103 14.0305 -6.92668 18.2612 
10.7194 -5.27457 -11.5882 4.23513 8.87307 3.45306 9.46471 -12.8714 -13.2543 
11.2555 -13.7202 17.2769 -2.51681 -12.4098 -12.2675 7.61202 8.26096 3.59558 
-4.18412 -4.8429 -4.72454 30.3312 1.43358 -2.51574 1.76273 -11.4594 5.55863 
-17.1599 0.71628 0.801452 -15.1944 10.6761 -6.25991 -8.267 -11.5371 3.89403 
-6.25688 11.9651 3.70317 0.504874 9.32636 22.2335 0.982074 11.5277 -2.26186 
-17.3655 0.751776 17.8258 -13.2026 -1.74384 15.8363 -1.48928 -4.65035 -13.2138 
-18.4617 9.49694 0.537027 -16.4581 12.281 6.10186 3.83281 3.95048 -8.95612 
10.9025 12.9597 14.15 5.0371 6.65382 5.42742 -15.6526 -9.12807 -4.24002 
-4.72868 -9.82542 12.9349 -0.321723 7.78063 7.83982 -16.53 5.10205 16.0292 
-1.13281 4.27512 -5.40877 21.322 5.27391 10.7381 13.2438 8.10859 9.62493 
0.23777 -0.698186 19.6165 6.46448 21.7162 13.102 -6.28329 -12.959 12.8657 
-8.57499 -12.7259 6.7683 -3.33781 -10.0996 -7.9081 -9.74683 2.41784 2.80946 
10.587 4.95193 -0.535743 -6.98693 7.5724 17.2539 -2.0866 17.1004 3.53581 
-7.79148 -13.5542 1.21853 -8.9976 -17.6336 -0.89317 2.05236 18.2265 0.367894 
-13.7837 2.91359 15.6721 14.5543 11.9977 -6.75835 -1.75488 15.7532 7.23739 
10.3634 11.7878 18.7723 -4.03247 4.49588 -9.33035 -14.853 12.4948 -3.78051 
9.32808 4.99814 15.8758 -4.06489 9.574 -8.41974 -13.8848 -9.16932 11.339 
-10.2051 -11.4765 -4.13031 -3.59133 -4.84333 14.1291 2.99879 -12.1825 4.25303 
-8.79213 -11.8733 12.1176 -9.2875 -10.228 0.103984 -12.4208 2.06467 14.4053 
-13.6621 5.22414 3.17554 7.86185 9.03895 17.6815 -4.92526 15.3624 5.1923 
-1.22091 -7.17448 7.55774 0.914779 0.436382 -2.49846 -15.4076 3.22106 12.4776 
-16.0697 2.33765 -1.19908 -0.817413 -13.1483 -6.30631 -3.25092 -1.47022 -4.43885 
3.87767 5.90213 20.5225 0.0158771 4.23387 -5.44936 8.82376 4.68576 19.9135 
-0.157401 3.7512 -0.803173 -15.3495 8.47055 14.2623 -0.107985 -5.5886 13.9408 
-12.3865 0.872255 9.24486 2.39843 11.1867 -3.89793 8.11496 8.13543 22.0248 
3.51498 19.5383 8.38784 -13.7369 2.3263 20.6281 -11.587 13.0767 10.7537 
6.4911 -7.36681 9.19014 -17.0694 -3.12728 -0.817721 7.12913 7.56795 18.8031 
-7.74795 -2.19282 -0.622644 -10.5707 12.3211 5.72144 9.60529 0.124677 15.1201 
-2.38637 -1.25891 -2.03646 6.32759 13.9598 0.495176 10.1342 -3.40508 -1.76656 
-3.91536 12.396 8.74146 -2.99617 12.4611 -12.3171 4.22868 6.8493 19.8931 
12.4791 4.92183 -8.93255 -9.50981 7.78116 4.46459 6.28913 6.39437 2.99673 
9.98429 5.65907 -11.8273 -2.22339 22.7907 -5.40848 -13.6618 -2.8794 13.8008 
-0.00804029 -1.36119 -6.54719 12.6649 6.15188 16.8995 -4.09176 20.707 -3.8487 
-15.7263 5.05697 -2.35826 -18.5229 14.5175 12.9845 1.25757 9.61807 -12.685 
10.6728 6.32585 0.0782648 -2.3493 -4.10858 -3.30767 10.6981 -2.43461 -2.78444 
-13.2274 10.6963 -2.65509 -1.27558 -1.48135 11.7667 6.13703 13.5656 -11.4319 
0.493269 7.06193 4.63851 -7.05924 1.14991 -3.29424 14.1776 8.11547 4.76171 
2.04352 -0.0202128 11.9727 -17.3893 0.892638 -0.236543 14.5773 8.73971 -9.45769 
-3.36446 16.9204 4.71646 4.81626 15.8567 -3.96291 -18.0291 6.90421 0.290615 
5.82961 17.9448 11.3938 -8.47573 3.64135 -5.29391 8.15963 14.132 13.7503 
-5.19742 5.11369 11.2098 -14.9618 2.15134 -7.50927 5.49765 -4.1279 5.25163 
2.83742 3.68142 -12.2291 -1.99047 17.5425 -5.45109 -6.31612 -1.41128 9.64624 
-1.33051 19.8719 2.8965 -8.82696 0.0334774 -3.45747 -4.89923 23.1893 7.59322 
-9.11185 -7.1602 16.3693 7.93653 4.24421 23.4386 2.41624 21.384 1.89757 
-12.5989 17.186 3.82553 10.2987 -0.399958 5.13948 2.56295 -3.02517 13.2135 
-1.52576 -1.22849 -1.45613 -10.0492 6.95684 17.487 0.679487 -5.78114 10.1293 
-2.89354 13.4749 -10.5683 -7.74374 0.16953 16.8394 -11.3906 -5.21484 -5.95289 
8.28716 14.3666 6.39974 17.5163 -3.40867 -0.180632 9.53074 6.53958 0.203423 
-9.16298 -0.555403 8.70813 8.44729 -4.66088 -3.6307 5.64418 13.0319 6.18482 
-1.95879 -9.73993 -5.02888 -9.66087 4.32886 9.96927 -24.8192 -2.68509 3.09154 
5.53198 2.26502 -9.55252 -8.39948 10.5035 -0.177175 -0.838147 6.03522 17.1979 
9.34884 3.01276 -5.86889 1.75739 -5.72972 11.0752 -6.86706 7.20204 1.89463 
3.76386 -4.77126 -10.6568 16.5352 10.9857 4.2362 -0.637075 14.1835 17.8117 
-0.800448 19.224 0.043759 -10.5637 3.44212 1.89037 8.7261 4.17113 -3.23183 
-2.15644 -7.50547 17.6063 17.9302 7.0972 9.59614 -9.13398 5.18121 0.356627 
2.05397 -5.15034 14.8599 -24.1871 -1.44818 7.53035 9.96169 2.94838 13.5774 
1.25357 4.7323 -3.74847 -9.04576 6.5412 13.6994 7.69979 -8.65796 12.5447 
5.30857 0.549362 18.0342 -0.570635 -2.79229 -1.95307 0.30862 3.35399 27.3507 
10.2447 -2.66504 15.3918 0.109772 4.12003 -0.298156 5.40716 13.154 16.3734 
-12.1958 7.57306 10.6696 -6.30208 8.3441 3.51549 6.95285 -0.391215 14.579 
7.0831 10.4553 -6.7758 7.49909 -9.06198 1.51118 6.3949 20.6307 6.97132 
-12.7351 1.64331 15.3831 -1.87779 1.31705 -6.96417 12.5275 -5.69662 11.0087 
-16.0231 5.96884 14.8571 13.5432 0.637405 1.03493 -6.5132 5.26129 22.0072 
-0.651577 -8.16092 11.5359 1.66225 9.27086 -12.2971 -5.19865 -8.24411 -6.46163 
13.1393 9.25813 3.17041 -13.8113 2.18487 2.11145 3.23206 0.269278 -3.26492 
-1.55534 -13.4977 8.06147 12.0812 -12.4979 4.6326 14.967 -9.73649 7.08111 
2.53869 -5.84378 -7.18897 -1.37222 -2.07218 -9.35027 7.62606 10.004 3.78912 
9.92514 15.1787 18.5462 11.2353 7.84293 -6.32709 -11.2999 7.14282 13.5448 
5.87627 0.0232692 10.1286 9.21149 -7.46876 -8.66998 1.75015 1.43077 8.02345 
-7.94618 8.33235 3.91474 12.7654 -8.31702 -8.17765 20.8907 11.0292 14.7162 
6.305 -7.30461 5.35159 -1.04457 0.512617 14.2983 8.94333 -3.56367 -3.27041 
8.07739 1.99785 0.174254 -5.32306 2.8518 16.7615 9.78193 0.299331 -7.95537 
30.0654 3.6504 9.76746 24.5736 7.57436 6.49232 16.087 -2.42779 18.2551 
11.9626 22.3091 13.3775 13.33 -0.322998 18.1535 3.46498 -17.1852 7.89888 
7.39689 -6.77246 -7.55362 3.09351 1.71422 1.6062 9.53917 -2.06729 -9.87035 
7.56809 0.0487045 -7.67167 2.54192 -4.55092 -1.48543 3.2295 -16.9215 3.0805 
7.22524 -2.62494 -9.11679 11.9064 18.3597 -2.42709 7.09408 -10.0193 -0.943419 
14.507 2.29949 -10.7186 1.16511 14.684 -0.335094 17.0944 8.29712 20.3755 
6.44552 3.48328 -10.179 10.201 2.64596 -11.0085 -0.441305 9.2651 12.384 
6.65827 12.1311 -7.96366 -7.61034 -1.7325 14.9822 -0.256632 -9.925 2.19646 
1.73208 13.7183 12.8738 7.85465 9.34599 15.3463 1.28158 -6.79659 9.07907 
-9.00336 -3.75703 13.0304 -0.502032 1.15948 19.8245 -3.37148 4.65502 4.51175 
18.7462 9.54424 19.2986 7.24024 12.7777 12.528 21.8571 -6.61472 12.2003 
6.35699 -17.9931 10.0569 1.22759 -0.0710003 -1.37836 -1.37128 -0.420913 8.00426 
-7.02293 0.0957642 -2.73195 18.1564 -6.10981 -0.122281 14.9156 3.63872 21.8399 
10.1125 3.35776 -7.07849 18.0827 3.193 19.3907 10.2506 2.97245 -0.730012 
-5.75029 6.09466 18.3261 11.3102 -4.98295 18.8719 -1.36707 0.164765 8.3108 
10.5195 19.2788 -0.767855 15.165 8.88897 21.3086 4.11655 4.74685 2.57676 
-2.45622 9.10354 19.7423 5.91245 14.3437 16.2661 16.3416 -5.97981 13.0041 
-3.55729 -2.61664 -6.30367 18.9695 14.1248 23.134 -8.62923 8.85885 4.0335 
-0.887637 -11.2771 11.2182 5.21713 18.1625 15.5887 17.1392 -5.08234 -2.51095 
3.84541 -15.0725 3.69592 5.06099 15.0559 3.10692 23.518 14.3544 1.79935 
5.85016 15.2179 -8.63002 14.0232 8.03027 20.6579 21.0409 3.62147 -2.94456 
[...]
CELL_DATA 2484
SCALARS scalars double
LOOKUP_TABLE default
-4.2337755725 -7.3109364646 -9.2990784515 -4.2036215021 4.9574778402 8.6430022688 3.4063541988 -1.631780488 1.2285706844 
-6.1731784146 -1.0125495714 -3.0364780357 2.8157920248 9.0849951661 -3.0999766189 -1.3404219531 -4.0321799948 5.1970280768 
2.1611070811 -9.2212269243 -0.11748984942 3.157793229 -0.78321118813 -9.3110553837 -7.2782510911 9.978483646 7.6019159179 
-9.6677202178 9.9812807961 9.8127847505 9.6934527247 -9.7571873522 -9.9948734465 9.8338006813 -9.9953023428 9.9950905524 
4.0368583903 7.2014451552 -8.7882859377 7.1582689212 -7.3060669352 9.4169606006 4.5848998585 -7.0677617918 -0.44011089146 
2.1341782456 9.4805594801 -4.303288989 -4.9309541 9.7803665184 -6.4643044198 -7.7223621182 8.6882648663 -1.7893961138 
2.8107683096 -4.5134313134 -4.5326526081 6.1212236024 0.61222832203 -6.9505215997 2.6881469732 6.531448359 -6.371819086 
9.0145034581 6.6065725813 -6.0181907568 -7.4115717648 -6.8623756403 -3.1275205043 -7.9953305141 5.4545480676 -4.2215188685 
9.9239906459 -3.9957846521 2.8217406286 -6.6254494947 -9.4604522029 8.1332398047 -5.1001545972 7.4897523264 0.43802823677 
-0.34943849546 -8.195218002 9.6833842437 -6.9273748459 5.0299789093 -4.3628060896 -9.8514814348 3.3066674973 -9.9691937345 
9.9492295595 -8.3365981193 -9.776659495 6.099726998 8.1652024233 8.135974618 4.0506507368 -9.5847701581 9.9295830097 
5.9675280324 -2.8961374409 1.1117496311 -5.2474657555 9.8593378883 9.8866540225 -9.8824869196 -3.1247727248 -9.899421474 
7.0287292282 -9.4651544831 -9.4026467132 9.4192395951 1.444181361 -0.62512810748 7.359839391 -5.0605124765 -9.7617806597 
-0.89600625453 3.8471594173 5.5401383731 7.5745834251 9.9340493086 9.9752889411 -9.724254683 3.1431077006 7.0256364028 
0.82596567685 -8.2933371507 3.9401323699 -3.7015714398 -4.8124098157 6.7142426782 -0.059340235621 8.3572826077 1.955573966 
-8.2464574558 3.1556796099 3.5015745041 -4.1716128275 -4.7978682472 0.013792459193 -7.5322900322 6.6641965046 -0.84536117281 
2.9598463821 5.515701226 -0.63041236701 4.8101060802 2.7951632294 -8.1667875936 4.7103468763 -1.5285373834 0.13675696962 
-8.649463398 9.4982220222 3.1105415152 2.1170929493 9.550813578 6.9981864828 -2.1457889901 -0.48904724232 -0.2648748656 
-9.6033361918 -9.3959934671 -8.0639614921 -0.76710265734 -6.0424865562 -0.77568545626 1.1041956178 4.1170410415 -1.2538771421 
-2.8576005974 9.0202689187 -1.0863221588 -0.8564623917 -7.7301302753 9.8976470612 -0.20754209561 7.8496908317 -1.586995309 
-1.8110634827 -9.9091101376 -2.4459632601 -5.8887545865 -8.2451405494 6.1024540573 -9.5682848526 -8.0413844912 -2.8454267324 
9.6287331722 4.6140152624 -1.9686834953 -5.054251527 -1.1689964188 8.0633727847 -8.410436295 9.9020198498 -9.889091147 
-3.164767977 -0.94932990097 -2.1995944632 -0.053949089247 3.0541540686 3.7025394656 7.634645599 -3.0259763328 4.1675276804 
6.019866083 -1.971058107 3.1547064693 -3.6679244852 -0.64410563029 -6.8147151612 4.325322204 6.8424259519 5.1365833946 
6.1848498591 5.4454538971 1.5852024983 -4.951319141 9.2683256548 0.98808648199 6.9445153399 -8.8739289002 -0.59831951215 
6.1207772137 -9.3879656927 -7.0471790576 -5.4298524303 -9.7352738609 -9.8209595188 4.5854087184 6.4566748608 -1.2902638916 
1.1282447674 9.0217690826 8.9087223878 -7.9709954022 -1.8588244388 8.9243623208 5.3612925239 -4.1219725085 -4.5817926342 
2.242631558 -0.41849229433 4.548319409 -2.6376230533 -8.6955205006 -3.8345087943 6.4274441217 -4.268431943 -7.450257459 
6.4981177855 4.9924069216 6.5006444371 0.47156170609 1.738526311 6.5875842323 -7.5320728498 -9.0334553953 -6.6477343081 
7.2356649778 2.4889186814 0.21208247288 -2.6707354673 0.45042090964 7.3695806091 -0.18576676252 5.6999527027 -9.8668332685 
1.0815782234 7.4103104886 5.4178942396 -7.4728790639 -7.8855942317 9.2561144857 -2.9608039716 1.7356941237 -0.065979447106 
-3.8931240721 -8.886966759 -4.0039284685 -4.1397477053 -9.1931471882 -8.9043372512 6.8408922418 8.0531420727 4.6429176204 
-5.2960382109 -6.0012244469 9.1834146515 2.4061185433 -7.9403880451 -8.4805703098 4.5240023836 5.5279018971 -3.3739784852 
0.4670206275 -1.1702508573 -6.1952654649 9.2997718163 -4.1378026041 -6.5941446592 0.016698768198 -0.34152738952 0.55762035706 
3.3030851299 -5.6405332762 -8.382072002 7.9125271481 7.1405152049 4.6692600759 -6.7940286146 -9.9504303592 5.5618695752 
-7.6080039703 8.6420652748 -7.2864197773 7.1091636111 6.2982651899 6.1603644214 -8.8906860737 8.3676489846 -9.7215675021 
-9.5803751149 9.1719106812 9.3213595247 -8.7830900333 -3.8556933561 -8.8341529164 7.3576778925 9.6849780423 8.0572849914 
9.6216352544 -9.9243748274 -9.9120304903 3.9163056878 -5.1672436363 1.2974444138 -8.7547115746 4.3687425769 1.0817702497 
4.7554944876 1.7186772068 -4.3309417923 -7.0223661176 4.1366576998 -3.5016683244 8.2570342445 -8.8850859428 4.8205548322 
-4.0126627917 -3.9685685269 -9.478219734 -4.9346117816 9.4261593075 8.9157859539 -8.8813550448 -6.5568355793 1.8231410241 
5.662844174 -1.5840987861 -7.4600493414 3.049197804 3.9874856672 6.028988598 7.370290227 -0.8211087957 -9.3367647623 
2.2053512471 -3.2799489188 -9.444603202 -6.9028505407 3.6215190901 -8.8305102618 -9.9661594298 -9.3394543941 9.8467287344 
9.1017168256 9.6000853105 9.5215389206 -9.2196259734 6.7657584539 -2.3356011935 -3.5185188339 -1.5850208965 2.1181757152 
5.9250732808 2.3164916044 -3.0156854899 -9.6922264563 -0.003112512169 8.1367833776 1.7335598536 4.9779717222 5.211511016 
-1.0927730656 -6.6237732087 -8.923825232 -5.6841455004 8.9677959239 8.6414986807 3.2871488191 -4.2103899676 -4.6449191109 
3.319641743 4.0794712685 -4.1990786939 -9.0100277244 1.78812252 4.7874025703 -1.2025168507 3.7205348829 -5.3830474507 
-1.0225629036 7.8974811465 -5.084519379 7.3223053031 -0.23693422824 0.72144471366 -3.7221103207 -2.5536854595 -0.30581797979 
9.8842992996 1.5907044147 -1.7589942524 -5.6834495678 3.2177302657 0.73977073019 -5.6891264946 -0.24336350613 -0.14083274278 
-9.7228350076 -4.6891325873 4.4008796676 -0.35424905211 3.6291431547 6.9547357874 7.7002613791 -9.9927191044 -7.4610871655 
9.877441445 -9.9988734158 -9.8181466296 -7.5837783131 9.906320175 9.9981470178 -3.3764058212 4.2121361881 -4.6004370376 
-0.32177697975 -6.2854790032 4.6337247924 -5.7672728813 9.5267316706 -9.9907384059 -8.4960776247 9.7166120419 -1.1470405252 
-3.7021862762 -8.7201507947 4.3773714036 4.3668251394 -7.9976001569 3.1721044426 -3.7197788885 -4.6301716714 3.748544765 
-1.1777057784 -4.0261242728 6.7123830203 -6.8229962914 1.4377263346 1.4103076799 -8.2163474765 -1.8573500351 2.4095985744 
-8.573411708 1.9046811743 -6.205489279 9.300796501 4.0566233776 3.5563893042 2.8383928074 -0.12499221804 4.7940776373 
-0.48355027905 2.9371971167 7.3909223276 5.4601064689 9.6725252149 -9.7423933144 -6.8032033645 3.1935466966 -0.44602149685 
0.1662086244 7.3094693194 -9.208930274 4.5389303987 -2.1997126979 -0.14599588871 9.6572914035 -1.1362190912 2.5501008339 
-9.4797095457 5.5483553944 9.297399854 -5.7537858231 -4.5079060068 9.7868658421 -4.8500073999 -9.9388233036 9.5804141119 
-8.4341349854 0.31234778072 -2.4357329935 7.3631112868 9.9209980887 -9.9069480354 9.860078329 4.9343478447 -9.7440461305 
-1.6997277068 -3.9346914816 9.8652171471 -2.2826462245 3.9471835097 -9.4388834165 0.92201273238 5.6924818501 -5.1044919935 
6.0754343384 -8.6871155629 5.4328724642 -0.43444093769 -9.7708360933 1.0977408775 4.5241057217 2.4039223611 -2.0484866767 
-8.5075814124 3.6988881172 2.8646250132 9.0205417112 -4.9696622631 3.0058072432 1.6878165325 -8.4356105255 3.6873417193 
4.6970750385 -0.60430020477 3.0637738092 8.2465397635 -6.7871178647 -8.4708917875 8.2211533963 -9.0683021176 9.9888107027 
-4.8306402458 -8.2573121572 1.7419576551 -4.913595521 5.3087717977 1.451086833 -4.9966765498 1.9335227244 2.4595202764 
1.4218496163 5.8048020244 -8.1799219608 -1.3266816994 8.7028918309 9.435339334 2.3055505232 -0.20824964952 -7.4868345106 
-9.761942454 -6.9842528581 -1.2219861718 -3.2941601128 8.1814528244 1.289468221 2.183543439 2.0521885066 0.80581913816 
-2.8726872854 2.8313682357 -7.8822562143 2.1712960766 -1.0424545117 -8.1981394377 -8.9475881942 -3.9291877456 2.1290307548 
2.023231804 9.3146445457 5.7037415821 0.068349933196 -1.366343437 -6.5130166468 1.4391708103 5.3016130501 -5.5638954047 
-0.05502230585 6.2547302224 -8.3022817925 8.8991466751 8.4114740043 6.3820570962 -2.0586724576 -2.2962945406 -5.2004899666 
3.6094618485 -0.2885961869 6.0124097976 0.86058765888 -3.202303543 -3.6627304564 -8.6827853035 3.2169434475 -3.7478811001 
-5.9845020519 1.4369100905 -3.3656148079 4.6760384794 0.12613612914 7.8402101988 -5.0854736135 -7.2214544383 -7.1516124123 
-5.7944461266 -8.0126481387 -2.6968157104 7.3172607059 4.0517332788 -2.4767843866 5.3878139596 -7.1976435587 3.5303625208 
0.46244227958 7.5671372256 0.025972407153 7.5599322309 -3.0301013864 8.5715380779 -2.7609616504 -1.1144593241 -4.6666726868 
7.772188237 8.491916786 -6.3395336075 -8.0874665405 9.0363446109 9.82920477 2.4052474499 -9.710634205 -0.35228663596 
-6.6233984822 2.4407579029 -3.0194542358 -9.859497644 5.2357976331 8.6446219073 -8.2790033585 9.2106733141 -3.3528403184 
0.11650721378 -0.20214240545 -6.5057090566 9.1453538829 7.7096103848 -8.3214755091 8.2170095236 9.4358404566 4.1665524001 
-9.694166055 -4.6399882264 -5.3521382894 6.6684985209 -1.8090094136 -4.2745208091 -5.522551706 -2.5030060854 4.2449200915 
4.2479152919 1.4098523327 -4.5091110387 -3.1791570913 0.42578985104 8.9693454029 8.2796093634 9.8848887835 -6.7173023224 
-0.84069584506 -2.0554903383 -0.52856182204 -2.9808923318 9.6311827262 -6.0126022656 3.3451192299 -6.9651612568 -8.4677647583 
-6.0191080764 6.2008680875 -8.2710889447 -8.2721229378 9.964875946 9.3569718587 -3.2605117148 -3.0922685741 7.9542683803 
1.0571811767 3.9832246445 0.33418890517 -6.5582106584 3.809353144 -1.6644032179 -3.2372687 3.6789871778 0.93452728874 
-2.1836387031 4.3162724995 -1.4791935291 -7.7271273602 -3.3974389007 -1.348077368 -6.1838075127 0.31490624017 9.3550985977 
-3.7263387129 0.17941739216 -6.0974923147 6.6861325901 0.010425562873 -0.73034290193 -6.8502446405 -7.4623946235 9.9111411166 
3.4520706239 -8.9602063791 9.0665057675 -1.8525819507 -8.3133845262 3.0805174284 -0.80163673223 -9.999774712 -6.1610169038 
0.5469648103 3.8152061287 7.6231437641 -0.53108878368 5.1623888319 -7.644774627 6.1970421512 1.0490236329 -3.1778092886 
8.8906291051 -6.3202761045 3.611064739 8.2063700883 5.0267740937 -2.4278949063 -5.901284589 -2.0637138295 -5.4585440734 
2.5902078998 2.7669911094 8.0040677097 8.4717093203 -6.4851286216 -0.47802457486 -0.00083269022774 7.3455764689 5.5676350412 
-3.338948848 -5.6321624362 -9.0626280271 0.63594003527 -0.029864946805 5.99959849 -8.3606384379 4.2332071845 9.2312265889 
-4.3408902379 2.6987847333 9.6419151481 6.5593377108 -4.5942876767 8.8118539872 9.9121529231 9.5862057785 -9.7733454232 
-8.8801267319 -9.5140745509 -6.2182252027 9.0102899665 6.8281486419 0.19549463074 4.4589272856 -1.378694004 1.0642931432 
-9.7527770494 3.561611673 -2.0350566678 9.674078516 8.7699866231 -6.4582805967 -9.631193615 -0.81176928466 -9.3669215586 
-3.9307692407 3.3314198523 9.1138383572 8.5826428308 -8.8175141165 -9.0780989308 -6.0229275553 0.74832145787 4.6667727113 
-0.85441149505 -5.2514750832 3.090898495 8.7834068168 -0.65709760865 -5.7071840537 1.7059082164 -8.1857319623 6.5825495421 
4.0334551663 -4.2254309921 5.2186257596 -5.3404640442 -3.7967171949 -5.0583137472 1.6092093264 -0.6279045294 -2.8408747241 
4.8267688416 4.5540800837 -0.61286681883 1.7758101591 -7.3159189656 8.1103023157 -5.3724841197 -2.057877011 -1.2696530642 
5.8769348742 -2.5737801828 -6.8951667688 -3.1681495419 3.0377627808 -8.7437184787 5.0193347668 -4.5380696132 -2.0633403346 
4.8999795331 -2.7985961952 -0.40788952129 -3.1608226156 0.3874667848 2.7542939609 1.3289241403 1.3831088935 -1.7978173417 
7.5779665388 3.2557772941 4.8149005431 -7.1344882447 7.7153897149 -3.5198272543 -3.9645569819 -4.1947795808 2.1336090224 
5.9664290383 -2.9762255397 1.1892222371 6.8023393788 4.4189360877 -3.7901863594 -1.2194443501 -2.9233311034 7.2359202935 
3.1186539299 -4.894629607 7.3713819212 6.9923412117 -1.0948175734 4.4202627306 5.6323877451 6.2979487313 -8.8592465702 
6.1887474969 8.2443590894 -5.1052379895 -5.3778285707 7.8702842473 -8.1002422838 0.55329472149 -7.0046824334 0.48389167914 
-4.840426675 4.3168216644 3.7502814355 -1.3493447253 2.8704944995 1.9535547175 -8.2196968574 -1.2390237027 3.6157401337 
2.6628359992 -0.094416764809 -0.36094150535 -5.1234300202 -7.2645744543 0.62076778393 2.0235455321 1.0267315838 -1.0428445015 
-3.945777915 4.1392464993 0.81126475124 2.9286187752 0.15210136299 -6.9649360271 -0.41421483927 5.7567503781 -4.4453449511 
3.567426744 -3.5584942252 4.5667200745 2.2033662696 5.2110198689 0.032783133589 0.49282080858 7.5076105335 -0.12206146184 
1.6514794618 -1.0285004491 -0.55043156789 2.3159791533 3.1880559164 0.40638924318 7.2058036203 -4.166663207 -5.1603554511 
8.8653121658 1.6221172448 -5.4286041735 -8.5361265898 1.0173998798 -2.2527682299 5.3590166857 -3.2285713639 0.090415574893 
-9.2185440803 5.768839229 -1.2779995192 -8.7895723365 -1.7027518633 6.1763685574 -2.9905217757 -7.7414474899 -4.1839390447 
5.7805902259 -5.2640517145 8.7558180794 -9.0772543631 8.513543796 9.8153270817 2.8108380876 3.1344258687 6.0811973648 
6.6057251522 -7.7841418135 1.1633913219 -1.1029305087 7.5845762978 1.3247225683 -7.6816797775 -0.89854504156 0.93851385095 
-0.62674563581 0.85081621485 0.21449265636 -7.2306509307 -0.23007475686 -3.1175547264 0.71286060176 3.3216851874 -3.5831581692 
-6.0187777215 1.0277903367 -6.7480142398 8.3062779849 -5.3493350541 1.2081746058 -0.31944218494 -0.87454216664 0.97317427152 
-3.0664844964 -7.2817613878 7.8306026063 -2.6554186082 -2.0262209449 2.9525823693 0.52709653975 4.3132889317 -1.7392780742 
-5.8912543452 6.4803762848 -0.94740015161 -5.9384465911 0.29226692664 -1.6500897791 2.2306383704 -0.67914499233 5.3478813622 
-0.91447953452 2.7912739232 1.4665332608 -0.22274063678 -3.7433089907 -8.2551147119 -7.1281236325 -7.6960660145 6.7948122228 
-1.14230109 -4.7325998629 1.1853604011 -3.6118585006 9.2190480059 -3.3013927196 5.9078150579 -6.3822215799 -2.6305950408 
2.3655273479 9.4081234818 -1.582318756 5.0583092928 -6.4765959817 -1.524890059 -5.0614848156 -2.0394292069 -1.2043972579 
3.5982314345 1.8868945916 0.38467893712 -5.0659403138 5.7722271784 -1.2599851942 1.5926302877 4.6285930762 -0.71888491179 
0.6121622314 -4.4546853083 0.31679337778 3.3459296631 1.8136536035 -8.6287995666 -9.4373395137 -1.4283267067 8.3153310829 
-4.1786055734 0.46355223258 -4.0825265889 -0.45485994999 7.9204524033 4.4004646582 -1.7809286417 -4.0270556505 1.8162676668 
-7.8250273449 9.5229353075 -4.084339148 -6.3313511333 0.066188084465 0.28365931558 -3.7311877995 -6.7925281872 1.4768077544 
4.3316754165 -1.653568674 4.9637766568 6.995626975 8.5026650546 1.912809263 -1.9083920349 -4.2418976887 -5.2496209405 
7.5625218499 6.2989533492 7.2937052901 2.5884678319 -2.2086525557 -2.8927619172 -6.32566244 8.5556526493 2.2735465763 
-5.156526444 -3.0955286563 -9.6623998236 4.2647714515 4.5477973688 -4.4763938436 3.5654615489 0.092378607388 4.5119079618 
1.2503157585 -2.7151269295 -2.1133806641 -5.8039701365 4.1852059474 0.48861451489 -2.5233887376 -0.74645962541 9.8648122422 
4.1941321813 -4.8057912139 -1.2562249067 -4.2406987507 5.7053749394 1.2832116279 3.6179383632 -1.0589695923 -4.5383254621 
-7.1878876053 4.6972133248 3.3039548979 0.2903172534 -3.66862875 2.1301167831 -6.515553277 3.5118149561 -0.56156755459 
-2.5919501815 -4.0465949605 6.2534314856 6.8856336194 -2.7423035923 8.4055757292 -6.1153320006 2.2488415809 5.635217191 
3.7509246994 7.6064349892 -3.7158783377 -5.1139741418 -9.5499452403 -2.9901583913 4.1135556196 -0.33617344051 -6.8513674652 
-4.4637444648 9.8948231933 -3.3238677863 -1.8984730202 7.8266833901 -6.5266910552 -2.7688252192 3.7676559245 -2.4497472366 
4.7626175841 0.17547898331 5.0339629308 5.1383560273 -6.8225129962 6.5804898336 1.8264004379 3.3059463918 -4.4030976978 
-6.2259210774 2.7499690103 -0.34311554681 -2.6995413857 -6.4586378984 -4.9490236207 -5.0886931418 6.6987020892 4.2375202841 
0.61522187367 1.5028116973 -9.9770329215 -3.8489233615 -0.36656597519 -0.98006865306 5.798359338 -2.3294587309 0.70431296714 
-8.124726074 7.5169790998 -9.3754132261 -2.7163698428 -1.7560430602 9.2024797047 7.1138031947 8.8467039303 -0.60721688781 
-9.0928562419 1.4130853555 -5.4925007558 -8.1852269441 4.897935759 -1.3838359075 -5.249232036 0.076002827851 3.8412362686 
3.9340056493 1.7877410485 -0.056822501691 -3.7884580011 1.3662913724 -0.16711480533 -5.8932729888 2.2242610849 -9.800318672 
0.25418438173 2.2040283141 7.1567424521 2.7673847788 -0.5640156721 8.4903556995 0.66178708372 -8.002012129 1.5384742654 
8.2154057542 0.44157818213 2.0985496853 0.98567209933 0.083317126207 -0.85687007767 -0.8944392285 0.52866330715 -0.70197747115 
-2.1013948083 -0.74672899181 2.757559595 -2.0498384722 4.8964076159 3.6156702355 -3.9754657433 1.7324059821 -4.2996972002 
9.1307810196 8.6016382184 -9.2336220882 5.5470367383 -8.4075329242 -2.4917139337 3.4621662212 -6.5614188989 1.7167964915 
4.536801446 -0.7782663566 -6.2412641676 4.4424999899 -3.4862869948 5.3862773757 -0.25025065453 -9.3182447888 -5.5107133247 
4.7096685873 9.7305144565 -4.1985396105 0.98816056668 -1.566020977 7.8223323943 6.686785437 1.1024979234 -7.0623023916 
2.8097370259 0.9285183637 0.085765496785 1.0145972709 0.31022121726 -1.1762527315 -1.2537914951 -2.1080373449 2.1118358602 
-5.7082576085 1.3212019939 -1.0611136875 -9.0198453477 7.3605061485 0.52584844169 -5.3164659602 -0.46903493474 6.4052989291 
-8.1446741945 1.9959004563 -3.7706693755 6.573787713 1.7600257962 5.6572221972 -6.4046020618 4.77482706 0.52824241264 
5.3211645357 -4.1564079964 1.7306369248 -0.96488275132 -8.2311502904 -6.8607783751 5.3245593458 1.8099654921 1.8709910294 
-4.2026723746 5.639439345 7.8777484698 -0.29867613919 7.679868871 -9.3698207428 -4.071543272 -8.406090034 8.1277600976 
-3.430479556 2.8267314718 9.7111839952 -2.0131713233 -0.86965527779 0.045385795743 3.5550180743 -1.464908178 8.3155823513 
4.4475649901 -5.7355798757 -5.4506429711 -7.3796030026 3.5331499282 4.2733106247 -0.29253623431 -2.188860307 -2.2488870437 
2.0816765386 -6.2779981641 4.1341468782 5.7030093341 7.8307504049 4.9146267302 4.9645219497 -3.2579334925 2.5838188372 
-4.6023091175 2.0173834728 -4.9595537945 -3.3208708234 -3.2812576091 2.3730536066 2.9391806587 -4.6071588683 -1.1092717968 
-5.1324781674 4.7670983533 3.9133881157 -2.4685245434 8.7733303877 1.3371465202 6.0743335494 -0.6836548386 7.227040818 
5.5663979613 2.0929804216 -6.4218304121 -6.3582625584 2.1212946421 -7.0673706032 -1.7792769409 6.7336503685 5.1444343056 
-6.0907792396 -4.0283732822 -1.0287183994 -1.8982701224 6.8529116799 5.4971103149 -0.99238641032 1.6889939794 -6.1491361319 
5.7974013899 5.8221655206 0.25251786005 1.7834864178 4.2502033082 -8.6265793687 9.88842359 -7.1900839336 -3.2493302915 
-4.0586279763 1.5341972922 8.112263256 0.37342026214 -8.557958056 -3.9915791318 4.8698406733 -9.9500666611 4.7921870749 
-3.3024679432 -4.2370677613 3.1772568435 -4.4414439904 -0.62752338492 -4.4102934382 3.516400223 -1.095102346 -3.5184248867 
2.4333478244 1.8794005836 4.6891025148 0.68739416573 -2.1235044022 -1.064860127 1.1576083985 -1.3143003961 -2.7126890529 
9.4186549228 4.9576596879 -6.2224678504 2.6252281775 5.1064073162 -6.9800404627 -6.9519453545 -4.7678958582 1.8766661993 
1.1418943461 -9.2112581667 1.3238239051 -8.9774754152 5.7637300251 -0.94808522209 -6.8739621645 1.9422279149 -9.2560592065 
8.2243619578 9.6389898423 5.7518744363 0.40081193225 -6.4986935269 -6.7752518026 -9.8242873455 7.6647805769 6.6855364208 
-3.4631706472 -5.3073419269 -5.4376123834 7.2226007083 -4.0793042892 4.656051255 -4.4659509533 2.0594143096 8.8943761878 
-5.5885798895 2.7121073027 -4.9342120406 2.724732003 4.2314731615 -3.1795046588 1.2134744511 7.7394413139 -3.1688804156 