# vtk DataFile Version 5.1
vtk output
ASCII
DATASET POLYDATA
POINTS 1244 float
-11.4452 -7.11935 -5.44416 3.29332 5.12502 -12.9296 -1.23325 -8.11441 -2.06582 
4.54369 6.92084 -4.9962 -7.88136 0.215177 -0.403539 -6.05388 -0.013325 1.22958 
-5.07107 -4.98523 3.50636 1.03338 -1.91035 3.04101 -8.13662 -7.6067 21.5628 
-20.2316 -20.7937 1.82701 -22.5383 -2.87665 -3.56056 -18.7474 -18.5279 5.1791 
8.27818 9.3739 5.13427 -19.4613 -21.9943 10.8373 -14.3749 -8.83951 18.2414 
-21.1014 -22.0969 6.67173 -11.8916 -9.6536 -6.77186 -10.6442 14.7174 -14.2348 
-8.89565 -17.6279 -10.514 -12.9174 -1.07195 -12.9961 14.0761 5.32638 13.26 
-16.4862 4.7256 -16.7378 14.9796 2.3721 13.7821 -12.5657 10.0393 -12.1994 
-9.47645 28.7251 -9.07987 -14.5069 1.06537 -15.9266 -22.1292 12.2061 4.31524 
-18.6437 -1.21756 10.9002 -25.0918 -7.34851 -6.47898 -21.7878 -22.7075 9.0297 
-37.5609 -5.10223 4.78466 -22.4119 -21.7102 0.162947 -25.4123 -11.4539 17.2136 
-17.4875 -3.70327 -3.08825 -19.4306 13.6636 18.5843 -21.6303 0.375616 12.9719 
-23.2262 3.55967 -6.5882 -3.4966 7.70422 5.22795 -20.3559 8.32001 -16.0749 
-29.9476 5.28174 13.4762 -20.5975 2.99595 -16.0569 -0.498164 -0.872096 0.975651 
-21.7088 -2.4907 -2.30828 -21.7767 24.3745 5.41243 9.64956 -20.9296 0.529347 
-2.3597 -19.3412 8.65425 -13.0541 -18.8143 -10.1801 -7.46166 -30.8563 6.86576 
-26.6071 -27.4032 6.3188 -7.45824 -31.0442 1.6609 -14.7312 -21.1725 17.8023 
-3.12517 -19.5124 -2.69253 9.34781 -19.8841 21.0756 12.6414 -1.84668 -23.0238 
-7.27538 6.63323 -22.6435 6.67721 3.698 -5.83473 -14.4914 8.62809 -21.3141 
13.7177 5.63047 -30.5068 -15.2482 2.65527 -21.2975 0.37714 -0.983235 -0.258603 
-0.818294 -2.7119 -20.9546 8.17752 23.9876 -19.7128 5.22296 7.27746 22.8133 
-6.08726 -7.83035 10.2746 -12.348 -10.9525 -2.26797 5.73893 5.6466 -3.90702 
-16.6353 -17.1411 4.34291 5.19697 5.18461 13.3833 -10.4982 -10.4076 7.11234 
-2.08629 -2.14551 -5.09231 -1.3231 0.823917 30.4724 1.19044 22.9493 2.26361 
-10.0418 7.64354 -10.8663 1.20481 2.63666 1.3255 -14.1044 6.85651 -14.7651 
-2.165 29.6605 -1.80754 -11.6343 -6.32629 -12.4768 4.5262 6.44193 5.5525 
-5.46728 -7.66843 -5.98997 0.227764 30.7755 -1.54648 10.596 -17.0205 -13.4582 
-15.1502 -0.543052 -8.98318 1.64515 -15.9354 -17.2951 21.2824 2.05934 -7.31321 
5.53722 -23.2093 -11.2725 -11.3617 0.889862 -6.64523 7.08178 -18.0473 -18.7775 
23.2078 0.568462 -12.2025 4.48284 -17.5234 -11.819 3.3273 -19.4379 -1.42286 
-1.97816 -19.0033 20.2403 7.63335 -20.4397 -6.76679 9.50954 14.8188 11.8387 
6.62333 -23.4094 -8.08782 10.3972 13.8298 11.8853 2.86244 -18.9263 -5.93178 
-11.1619 -0.986953 -2.42775 11.6488 -22.927 8.74803 4.55867 13.5072 -24.1255 
5.52414 -8.32817 -22.3 -3.26774 8.4617 -6.55752 5.98723 -7.16929 -22.4571 
5.13387 20.7569 14.8155 3.35586 -6.61309 -21.1947 14.7541 9.90209 -7.11549 
-2.23996 -2.47463 -19.1864 24.5837 6.14203 -19.5148 14.144 -7.52762 18.5459 
11.1295 -5.26404 -11.844 4.28577 8.92901 3.45318 9.46609 -12.8601 -13.3992 
11.3806 -14.229 17.9085 -2.92356 -12.2678 -11.656 6.86349 8.03638 3.5269 
-4.22757 -4.68526 -4.30883 30.303 1.50456 -2.55618 1.27482 -11.4753 5.5124 
-17.4484 0.911636 0.785306 -15.0916 10.5715 -5.74739 -8.31116 -11.902 3.94245 
-6.19233 12.1457 3.95321 0.340101 9.37617 22.4096 0.488005 11.4476 -2.60014 
-17.2946 0.623587 18.1547 -13.1899 -1.54229 15.8531 -1.13848 -5.4541 -14.243 
-18.6686 9.64311 0.745626 -16.9142 12.4557 6.10683 3.95476 4.25707 -8.8708 
11.6569 12.9798 14.2424 4.38006 6.48975 5.41339 -16.1079 -9.08418 -4.38847 
-5.12382 -10.0172 12.9038 -0.711519 7.29648 7.32055 -16.9865 5.07716 16.171 
-1.21003 4.27552 -5.2209 21.4119 5.37626 11.142 13.3074 8.11929 9.92803 
0.443113 -1.50758 20.1762 6.82994 22.5073 13.1763 -6.49476 -12.8081 13.1999 
-8.67406 -12.6957 6.71355 -2.71102 -9.35566 -8.24154 -9.67897 2.12142 2.84915 
10.8355 4.85629 -0.921681 -6.54201 7.80521 17.5378 -2.24844 17.2177 3.55511 
-7.65929 -14.0425 0.742985 -9.07147 -17.9718 -0.977607 1.83119 18.8022 0.206675 
-14.0621 2.82963 15.5808 13.9375 12.5913 -6.4437 -2.11621 15.939 7.01954 
11.1659 12.361 19.5001 -4.17046 4.36876 -10.5813 -14.9274 12.983 -3.90732 
9.47751 5.20757 16.3397 -4.51427 9.97805 -8.74129 -14.0459 -9.48316 11.4411 
-10.3891 -11.5409 -4.24993 -3.65651 -4.97042 14.5101 3.28454 -12.5412 4.22215 
-9.49503 -12.2035 12.4863 -9.55538 -10.2093 -0.175729 -12.1097 2.32107 14.8034 
-13.7195 5.28815 3.45722 7.99077 9.52897 18.0984 -5.61636 15.4713 5.55761 
-1.37314 -6.8708 7.46381 0.799204 0.574053 -2.47731 -15.4548 2.93065 12.4823 
-16.1484 2.00705 -1.17737 -0.929351 -14.1377 -7.14872 -3.39807 -1.51857 -4.52214 
3.35629 5.75637 20.0491 0.441618 4.19822 -5.99596 8.96033 4.59181 19.7275 
-0.223901 4.04333 -0.119065 -15.7988 8.66367 14.3601 0.244239 -6.1297 13.8419 
-12.3451 0.777379 9.71496 2.50709 11.3758 -5.48021 8.1513 7.92078 22.6104 
3.20621 18.8021 8.48918 -13.6593 2.93583 19.9521 -11.306 13.2901 11.1399 
6.40341 -7.61882 9.32218 -17.4325 -3.225 -1.06445 7.61209 6.78938 19.676 
-7.88245 -1.42578 -0.111903 -10.6646 12.3068 5.80649 9.57993 -0.138106 15.4471 
-2.18273 -1.17036 -3.14409 6.13248 14.1744 0.0339051 10.5557 -3.74887 -2.08675 
-4.10271 12.4292 8.52221 -2.9176 12.8599 -12.8458 4.42548 6.87394 19.7933 
12.9921 4.46767 -9.05851 -9.85228 7.85116 4.72557 6.16116 6.44571 3.03062 
9.31574 5.33555 -11.641 -1.95122 23.7666 -5.99607 -14.6174 -2.85962 14.1229 
0.22649 -2.32821 -7.57818 12.4271 6.09385 17.0938 -4.31787 20.7981 -4.01025 
-15.8979 4.90762 -2.38132 -18.6451 14.6799 13.2073 1.54716 9.93046 -12.9506 
10.9062 6.442 0.101274 -2.47593 -4.73382 -3.32075 10.904 -2.26308 -2.89908 
-13.2002 10.8312 -2.6548 -1.28406 -1.58345 11.9152 6.49352 13.4944 -11.6365 
0.24372 7.03793 4.60758 -7.03037 1.19527 -3.16959 14.8124 7.96161 4.72481 
1.86443 -0.0143902 12.1216 -17.7396 0.8333 -0.221552 13.7665 9.00372 -8.70614 
-3.47784 16.8696 4.91366 4.85451 15.9619 -4.37164 -18.4707 7.19105 -0.0817296 
5.96774 18.5351 11.6319 -8.48055 3.85977 -5.41321 8.52962 14.4028 13.9877 
-5.49199 5.15299 11.2987 -14.8309 2.3692 -7.17858 6.14489 -5.12083 5.05833 
3.30541 2.89815 -13.791 -1.58083 17.7587 -5.07684 -6.28987 -1.55967 10.2424 
-1.49772 19.6999 2.73635 -8.96545 -0.0480383 -3.64839 -4.82747 23.1019 7.45855 
-9.19796 -6.94759 16.4341 7.9099 4.27558 23.7881 2.31355 21.5256 2.07146 
-12.7227 17.3935 3.96088 10.7571 -0.745166 4.97936 2.66657 -3.70717 13.6407 
-1.51583 -1.09681 -1.30558 -10.0499 7.50658 17.5693 0.765506 -6.44128 10.6008 
-3.27934 13.8584 -10.7944 -8.03471 0.0721753 16.7601 -11.6119 -5.70611 -6.17847 
8.21118 14.6309 6.35761 17.8123 -3.77414 -0.4792 9.79523 6.79551 0.134592 
-9.39141 -0.640552 8.09283 9.34719 -5.026 -3.5017 5.66506 13.5773 6.44291 
-2.00571 -10.0271 -5.12949 -9.9664 4.67631 10.7666 -25.3025 -3.03828 2.54239 
5.52868 2.32651 -9.76074 -8.37172 10.6006 0.0492289 -0.690541 6.42467 17.4531 
9.5569 3.01198 -6.03019 2.05869 -5.77195 11.2202 -6.79601 7.51733 2.15913 
3.80856 -5.34516 -11.0262 17.1589 11.1031 3.78608 -0.657266 14.4103 17.8121 
-0.880083 19.736 -0.0568078 -10.9734 3.4923 1.52256 8.15328 4.27674 -2.70639 
-2.10185 -7.59042 17.904 18.9096 7.75709 9.95059 -9.94679 6.02046 -0.669883 
1.85095 -5.34201 15.445 -22.9634 -1.90744 7.73794 10.3656 3.16533 13.8477 
1.25071 4.87778 -4.30693 -9.44704 6.72557 14.0013 8.60785 -9.40746 13.0274 
5.07216 0.462747 18.6677 -0.515831 -3.00032 -2.94685 0.0581297 3.32851 27.4276 
10.4736 -2.78443 16.0047 0.368263 4.4661 -1.39566 4.9107 12.8356 16.2761 
-12.4412 7.68149 10.7903 -6.53428 8.31674 3.40992 7.33401 -0.352358 15.2005 
7.40251 10.4728 -6.74842 7.71581 -9.26049 1.01677 6.40097 20.6445 6.78802 
-12.9808 1.59346 15.3402 -1.63937 1.09712 -7.24287 12.6617 -5.96234 11.1793 
-16.1096 5.88804 14.9892 13.6438 0.192307 0.833954 -6.58582 5.92941 22.2488 
-0.462023 -9.48701 12.2426 1.44609 9.5282 -12.8553 -5.21552 -8.13132 -7.0523 
13.0276 9.74138 3.16533 -12.6867 2.2514 2.35025 4.07976 -0.0631795 -4.44455 
-2.42957 -13.7506 8.16845 12.4499 -13.3821 4.94014 15.4915 -10.0278 7.55766 
2.15857 -6.07408 -7.51196 -1.26769 -2.17101 -9.88015 7.3764 10.0205 4.27823 
9.93262 15.4304 18.7695 11.6056 7.8453 -6.50301 -12.5665 7.16938 13.9451 
5.37713 0.519834 10.1162 9.6048 -7.64239 -8.89765 0.982117 1.53491 7.81065 
-8.26949 8.3843 4.12576 12.156 -7.3781 -7.63968 21.192 11.0443 15 
6.35245 -7.30355 5.20587 -1.26617 0.263681 14.1718 9.09659 -3.64682 -3.62387 
8.21446 1.44424 -0.396866 -4.36283 2.77544 16.7215 10.0652 0.210757 -8.20175 
29.5296 4.06392 9.39837 25.8058 7.78095 6.48516 15.9786 -2.23622 17.6231 
11.7738 22.0338 13.3655 13.9259 -0.228003 18.4239 3.37808 -17.1987 7.8982 
7.51595 -6.97057 -8.06087 2.41918 1.1627 2.36576 9.50708 -1.36393 -9.2388 
7.59712 -0.301598 -7.96064 2.71011 -4.74124 -1.06104 3.30918 -18.244 2.81684 
7.29353 -2.43344 -10.0361 12.0223 17.8765 -1.7226 7.22465 -9.32956 -0.596229 
14.6544 2.24779 -11.4405 1.17668 15.0689 -0.503999 17.3922 7.89115 20.6884 
6.86153 3.54796 -10.7797 10.0788 2.56522 -11.4297 -0.61535 9.29446 12.1445 
6.95923 12.3454 -8.2516 -7.87141 -1.98842 15.5602 -0.448467 -10.6693 2.33155 
1.99421 13.7547 13.1762 7.72569 9.62143 15.4982 1.4621 -7.21804 9.4594 
-10.3977 -4.33929 13.738 -1.2129 0.924096 20.3719 -2.97211 4.48449 4.18547 
18.1963 9.43103 19.1477 7.2922 13.052 12.5414 22.4223 -7.18423 12.262 
6.81886 -19.0123 10.1471 0.999308 0.164128 -1.91326 -1.77057 -0.586628 7.67719 
-7.21004 -0.0821454 -2.59679 18.5742 -6.2031 -0.0072804 14.5836 3.88711 22.4184 
9.71307 3.35103 -7.30574 18.0065 3.15308 19.8212 9.934 2.98413 -1.1946 
-5.95107 5.92579 18.4461 11.2801 -6.08718 19.2163 -0.933402 0.966307 8.30788 
10.6319 18.9445 -0.516108 15.4163 8.87924 21.8113 3.98508 4.09822 1.82408 
-3.02056 9.11043 20.4629 5.8565 15.1218 16.9862 16.0707 -6.2028 12.6521 
-3.32088 -3.4044 -6.24814 19.0883 14.4334 22.8441 -9.12783 9.13753 4.02504 
-0.881927 -11.3043 11.0563 5.04913 18.01 15.513 17.2841 -5.32836 -2.63879 
4.10849 -14.8697 3.4673 4.6673 15.7576 2.97337 23.8808 13.9231 1.99819 
6.21248 15.2335 -8.81601 14.2205 8.34582 20.7367 21.4796 3.81738 -3.1371 
[...]
CELL_DATA 2484
SCALARS scalars double
LOOKUP_TABLE default
-4.2986651495 -7.1421034008 -9.2761150127 -4.0712306167 4.9508501693 8.6654423402 3.2592351054 -1.6324744383 1.1377436095 
-6.1139540595 -1.1133533351 -3.0415167769 2.7516525618 8.8926876919 -3.1017144576 -1.3478076994 -3.8435876282 5.2728514205 
2.2047525148 -9.286976034 -0.11017846988 3.1695357316 -0.89222097239 -9.2710553031 -7.1880873501 9.981107849 7.5479729386 
-9.6890451512 9.9896244152 9.7997365987 9.701303885 -9.7627687227 -9.9950940386 9.8185966298 -9.9954965889 9.9952290874 
4.2124239753 7.2169163094 -8.9242961346 7.1948527308 -7.6128643555 9.4816492802 4.7991251643 -7.2491459328 -0.54901782499 
1.9803610681 9.4697968876 -4.3008971532 -5.0183318325 9.7624227394 -7.0677816957 -8.2161285226 8.6181989709 -1.8938341424 
2.711327241 -4.6144732995 -4.3396514704 6.1030636226 0.016671425631 -6.9842408273 2.6748511781 6.7477986982 -6.6714870779 
9.0268913835 6.7918860401 -5.8122141492 -7.7729151764 -6.8171103732 -3.1917777757 -7.9424547674 5.5800213573 -4.2742580653 
9.9552101531 -4.1369948244 2.8471801259 -6.6600984163 -9.5246450412 8.1621733943 -5.1886075973 7.4468225127 0.69237703269 
-0.64094522665 -8.1719833819 9.692752372 -6.8566521868 4.818053336 -4.4474033367 -9.8403079666 3.2675782384 -9.963461127 
9.9481452932 -8.2096872594 -9.7679624587 5.9216713152 8.1435433613 8.0910830623 4.2897751701 -9.6608540201 9.9175720352 
5.8915023338 -3.227250494 1.1590939418 -4.8208086966 9.8403566921 9.8930885569 -9.8732201829 -3.1334215978 -9.8802686059 
6.6305140679 -9.4988035807 -9.316161713 9.4003318666 1.4048372027 -0.66348673968 7.3043571935 -4.9775740974 -9.7331178387 
-0.91868623615 3.7933508627 5.4645183452 7.5283761134 9.9140161632 9.9759828657 -9.6854775684 3.0929489043 6.9883462151 
0.81003008941 -8.2671747348 4.2982630945 -3.6827426893 -4.9940845186 6.6959167434 0.098406148421 8.4882399235 1.9316369271 
-8.4091698252 2.9816338415 3.4169143936 -3.9253816594 -4.6559690501 0.09523343009 -7.5147336348 6.624552309 -0.97630878721 
2.8944057074 5.5613477001 -0.63313577155 4.8287188603 2.7290872165 -8.1282381142 4.7384967336 -1.483493051 0.1099232429 
-8.7998641854 9.4889410761 3.2161876805 1.99084683 9.4316811938 6.7311996846 -2.333197127 -0.54257029322 -0.4972208217 
-9.481092862 -9.3834621763 -8.1663027569 -0.84989830531 -6.1918873035 -0.69160025299 1.1883251271 4.01820416 -1.4508937799 
-2.9602055876 9.0208025757 -1.2398422088 -0.86241148905 -7.6781953469 9.8746674354 -0.13041122569 7.7647094452 -1.5203740379 
-1.8752211889 -9.859691655 -2.4182214586 -5.9040314532 -8.3423879531 6.1692237047 -9.5971350208 -7.8959225588 -2.9109347142 
9.5109485811 5.2785245514 -1.5830736074 -5.1551901555 -0.78630853898 7.9753503118 -7.9647506829 9.9104197221 -9.9101530025 
-3.2687749993 -0.90923974135 -2.1715611819 -0.026836850546 3.1525408638 3.9881408437 7.7270375705 -3.1199557172 4.2121414119 
6.3522280586 -1.9829921293 3.2767616549 -3.6616620756 -0.55870470483 -6.8899119791 4.300613377 6.9672592648 5.1353937203 
5.9042484479 5.4822449662 1.6420351417 -4.9364771988 9.1583848231 0.97724147688 6.8475816332 -8.8810926083 -0.51896138899 
5.9965382351 -9.2748696119 -6.5504216115 -5.4049304541 -9.6924704915 -9.8378808345 4.3294218341 6.1901279321 -1.5079464366 
1.0815342458 8.950892434 8.8261445297 -7.8774224216 -1.7874826421 8.8790905202 5.3788544322 -4.1101292834 -4.3678115143 
2.101535127 0.040530334143 4.3394367146 -2.5894517462 -8.5505259907 -3.8736071423 6.3603402798 -4.416392644 -7.4713100626 
6.440023552 4.9257982488 6.5893181969 0.51614627053 1.84243913 6.8050759991 -7.3889579201 -9.1145029405 -6.7775478052 
7.3309299381 2.2862081995 -0.19902833705 -2.4450988104 0.80115659793 7.3925342797 -0.3314306986 5.7102330879 -9.8220063542 
1.24010724 7.382449773 5.3401489807 -7.380713553 -7.8538982433 9.2351662224 -2.7508669036 1.5801928306 -0.23620664852 
-3.6271579761 -8.8224432547 -4.0233904402 -4.0555439582 -9.1473915443 -8.8158079264 6.7287385068 7.9140079662 4.667936893 
-5.1096561964 -5.8769217499 9.2139671382 2.2315480868 -7.8784504019 -8.3992911007 4.4857446626 5.1071117073 -3.2601767615 
0.4018777809 -0.82183935843 -6.1764240926 9.2044230671 -3.4481283804 -6.6839447198 -0.11133074624 -0.45353244644 0.58625872292 
3.7032058032 -5.8022001624 -8.520725189 7.8530122409 7.2488523933 4.7441026199 -6.8911930208 -9.947767592 5.6532774821 
-7.6524662809 8.5684532194 -7.3475662013 7.1305167404 6.4114980501 6.1777520962 -8.5869632549 8.2748888394 -9.6975180684 
-9.5748365522 9.2539787072 9.2951854497 -8.8587812549 -3.7394259972 -8.8966179665 7.5584793259 9.6389319931 7.9098403443 
9.6799913833 -9.9193369675 -9.9188400959 4.277195992 -5.3338930228 1.8359581387 -8.6621563515 4.2912676125 1.7452087564 
4.762705105 1.7194200324 -4.6810963096 -7.0386501162 4.1516530486 -3.4559374502 8.2998088407 -9.0808805652 5.1450470292 
-4.1942265288 -3.9587194964 -9.5291164829 -5.0776364211 9.6152600466 8.9684319021 -8.9441652066 -6.7208307592 1.9019592324 
5.6377047897 -1.5946147558 -7.5698742292 3.112913122 4.1686795387 6.1533476703 7.2668098189 -0.68712568146 -9.2703003503 
2.0624864951 -3.4221800813 -9.4244553657 -6.8920791126 3.7719684097 -8.6814342156 -9.9684633985 -9.2984146792 9.8224446816 
9.1077978972 9.5487320777 9.5410014989 -9.2085029574 6.7601252249 -2.4866851453 -3.5060363951 -1.1580684351 2.0229115017 
6.1215378329 2.0560210456 -2.9787651457 -9.704467384 0.077390811609 7.9777382761 1.4110849584 5.0585583837 5.0869432886 
-1.3805298111 -6.2891947429 -8.833993365 -5.0382371167 8.8456437798 8.6012254653 3.7970165991 -4.2404664197 -4.8383130894 
3.1941693363 4.0455362813 -4.0069666967 -9.0711049867 1.5013759323 4.653002277 -0.81992927167 3.7477304806 -5.218524111 
-0.77645765786 7.7785574411 -4.8693781765 7.2546483841 -0.57212998724 0.53895173163 -3.7043315309 -2.4449508288 -0.44776570276 
9.9556732519 1.2350975427 -1.4908390281 -5.7321071604 3.6919913861 0.70360805615 -6.3564388045 -0.40887305216 -0.41133795778 
-9.8459409956 -5.1392904912 4.6007522415 -0.20716971103 3.7813964028 7.0588021711 7.7016268916 -9.9839600898 -7.5171689367 
9.8632272989 -9.9985999224 -9.8297471278 -7.5989869306 9.9160770108 9.9974091079 -3.3217806033 4.1994478194 -4.4190309761 
-0.26919467517 -6.1847462897 4.706186649 -5.7881831216 9.5735138188 -9.9913875907 -8.6049439473 9.680496906 -0.51968118002 
-3.9033925601 -8.7537674223 4.3960204936 4.4528318551 -8.2856578656 2.6807508775 -3.8125680428 -4.7564304318 3.7738645682 
-1.3577820621 -4.2445341427 6.7715487355 -6.9199192489 1.4066311795 1.5132016136 -8.3041179267 -1.8434521514 2.4000518811 
-8.4705316721 2.2274342153 -6.3471054991 9.2725151939 4.0772205893 3.3900911917 2.7820441492 -0.22542722633 5.1775825378 
-0.22151132576 2.6620602086 7.6517602362 5.1633622808 9.6326814915 -9.7125661634 -6.6557266534 3.2053273781 -0.24023064711 
0.15152347925 7.3955800711 -9.2118255951 4.6446783495 -1.9717636653 -0.18773509583 9.6226057192 -0.83528321088 2.5516326035 
-9.4325247745 5.6610293313 9.2885088502 -5.8656768951 -4.6009278448 9.7756769779 -4.9349627823 -9.9406090859 9.6018150889 
-8.3496414017 0.69020056946 -2.6809886163 7.4701462388 9.9149935676 -9.9104321484 9.8137022097 4.9841234783 -9.7321008146 
-1.5303743637 -3.7995960791 9.8043320026 -2.5344405605 3.6120224843 -9.4800544658 0.68369469658 5.834656713 -5.1439839685 
6.0304347083 -8.8042283326 5.5114628835 -0.72126467936 -9.6555967823 1.2133031951 4.5431152909 2.4562647103 -1.8946103278 
-8.5933256543 3.7648538176 2.6156368848 9.115332029 -4.9825428676 2.757129023 2.275674393 -8.5039175693 3.9242550738 
4.7611075987 -0.55789105045 3.3172180295 8.0718329798 -6.6902627973 -8.6361164475 8.3941360098 -9.1353462563 9.9703186492 
-4.5531885431 -8.3104964792 1.8717303623 -4.8325908458 5.7894915875 1.302444932 -4.7904519233 1.8635851299 2.2936637717 
1.1498578641 5.8402579026 -8.1703107855 -1.3074597711 8.7426073674 9.357931092 2.5034103895 -0.53308714174 -7.3979450159 
-9.7069595235 -6.9257383635 -1.3142170784 -3.0951223529 8.1862417299 1.3877368519 2.0040951215 2.2135274666 0.70315692936 
-3.0384369254 2.6813219559 -7.8553091277 2.1581812592 -0.94805215545 -8.3183987364 -8.8981185411 -3.9799948164 2.0056208988 
1.6308995966 9.5986176787 5.7394105285 0.30544085998 -1.1617449012 -6.4616953265 1.3381082284 5.2119393095 -5.345718211 
0.090855065321 6.3951263186 -8.2375895145 8.9188897539 8.430158622 6.2335491394 -2.0947475047 -2.1821538162 -5.3588184624 
3.4298925682 -0.19296962669 6.1315432282 0.71326445638 -3.3284061796 -3.6876574919 -8.7915934027 3.3466800615 -3.9640884426 
-6.2648583238 1.038158575 -3.5272406405 4.6813396616 -0.36214622173 8.0923509932 -5.0806380406 -7.136377681 -7.1226231235 
-6.0572016222 -7.9963449055 -2.7829344878 7.0020668078 4.3737743834 -2.5625173085 5.4298240214 -7.46994837 3.7693773053 
0.29922791497 7.7613677522 -0.37751335792 7.6052007629 -3.0468418455 8.5203780235 -2.8764991577 -1.3216278507 -4.7001539642 
7.7392231469 8.535080943 -6.2797845374 -8.0826489865 9.0129388031 9.8760516253 2.5652415121 -9.7262400444 -0.049620346612 
-6.7091567254 2.5018540319 -3.1666509127 -9.867515543 5.0802145915 8.7311752745 -8.4492203875 9.2608833195 -3.5726184294 
0.13698921848 -0.23078329796 -6.6586943632 9.1944149186 8.1342673128 -8.1087655563 8.0768551303 9.3815146052 4.0117667622 
-9.5793607659 -4.6121560241 -5.4108894121 6.6597369974 -1.6705494981 -4.3092194324 -5.6384246082 -2.8338920447 4.5753136005 
4.245110366 1.4038521595 -4.5988467653 -3.078008548 0.74299359205 8.944475924 8.3731864749 9.8118302995 -7.0126157397 
-0.30093283044 -2.2728967046 -1.101220474 -2.9056583832 9.6259316092 -5.8732043373 3.4757375849 -6.9069444313 -8.4566509479 
-6.2947164417 6.0154699277 -8.3213752001 -8.4050009312 9.936317522 9.3901680321 -3.3434388848 -3.4349270606 7.8602349298 
1.052011431 4.1469335943 0.086921635328 -6.6747843488 3.8389129733 -1.7018163402 -3.4264869925 3.5784163646 1.1561209938 
-2.1419479138 4.3433146106 -1.7549249034 -7.7230624029 -3.3862963216 -1.1177961278 -6.317304657 0.30634398782 9.177384697 
-3.8198206581 0.57105699064 -5.8331676383 6.7016333081 -0.55638924936 -0.85787092798 -6.912530681 -7.5085782215 9.9146531069 
3.5441469765 -8.9974303089 8.949615935 -1.6427612263 -7.8548992946 2.9655169 -0.85642833527 -9.9899971773 -6.2929577869 
0.45360262723 3.8940037014 7.8283322317 -0.62347058769 5.0452285651 -7.741244973 6.2401036411 0.87221818033 -3.2717318534 
9.0420514955 -6.288315095 3.7687145746 8.2173524025 5.0211749107 -2.4592171943 -5.9542791091 -1.8547136586 -5.094661134 
2.5526418167 2.6250493145 7.7829347733 8.5871314343 -6.3201662522 -0.57135258836 0.26313466741 7.0730927266 5.6551960445 
-3.3375417865 -5.7191668795 -9.0319861849 0.69291150832 -0.11735298816 5.6170769759 -8.3427361787 4.318277035 9.2388523484 
-4.2828086796 2.8511000194 9.6402420343 6.6378456731 -4.8623684685 8.7864146036 9.9215417757 9.5651062802 -9.7600002504 
-8.8534505116 -9.5189681892 -6.0834858884 8.9841306233 6.814038151 -0.0054431315832 4.2713725403 -1.2262948747 1.0903583382 
-9.7287293375 3.5318769353 -2.124295782 9.6626883014 8.7211609109 -6.4803482872 -9.6031397389 -0.82398700258 -9.3369509062 
-3.8351529219 3.3864949096 9.0563062397 8.5748736453 -8.8146131534 -9.031463345 -5.8977198175 1.0098856414 4.6404320606 
-1.007061823 -4.964809201 3.1531890415 8.7706511501 -0.67133135863 -5.6043611032 1.6038828427 -8.1994452857 6.5005732335 
3.9989367042 -4.5763030638 5.2235825912 -5.4231846514 -3.9756958567 -5.1146217079 1.5740709904 -0.59798578051 -2.9468942775 
4.8095371225 4.6220969122 -0.55963653344 1.7061490802 -7.5045100386 8.2173152875 -5.7613509661 -2.4067552652 -1.5431554506 
6.162018989 -2.6095747645 -7.182417077 -3.2620180736 3.1083189771 -8.7814502718 4.9230575798 -4.461899652 -2.0470426897 
4.8560345882 -2.6900313616 -0.47679284335 -3.147543091 0.45732912095 2.7033978345 1.6297635588 1.3833444116 -1.7729595983 
7.6683253681 3.1714141396 4.8349529795 -7.213407887 7.630144948 -3.6193719477 -3.8881590313 -4.1809086485 2.1379541219 
5.9418983955 -2.7962387365 1.1425895158 6.8423179779 4.3421004188 -3.6749692872 -1.1703452334 -2.9886073599 7.3660287163 
3.3198021856 -4.7800742696 7.3888471015 6.5818614396 -1.1330944597 4.1981704356 5.8772849209 6.1240507763 -8.8359245885 
6.1523046508 8.3386693391 -4.9276560014 -5.5972651806 7.8010596566 -8.1505440553 0.55657260235 -7.0396522672 0.33029885888 
-4.8507748396 4.3329787725 4.6177115532 -1.3742915796 2.8504028008 1.9010512969 -8.3263286148 -1.1541612412 3.4699210007 
2.6463341207 -0.053957024988 -0.31489644764 -5.4371577572 -7.1054879891 0.60973501699 2.0148389809 0.73924440474 -1.3305537721 
-3.9047328994 4.1422018833 0.79480683174 2.7526932408 0.098583857842 -7.0144182179 -0.49083443317 5.779217296 -4.5466807415 
3.3440486994 -3.5403336811 4.7333048283 2.0350151987 5.2990403863 0.13806929647 0.33735388018 7.5095759987 -0.1552601913 
1.9227950412 -1.0437256808 -0.50619820781 2.3609332125 3.4295201672 0.50230412091 7.171593354 -4.1568729344 -5.2499133738 
8.7119750893 1.8978325113 -5.6182895993 -8.563907905 1.0875986302 -2.5784398459 5.5995834445 -3.2135277732 -0.037237608999 
-9.2179751077 6.1923805503 -1.1838681105 -8.7620262804 -1.7323691885 5.8421518063 -3.6007365715 -7.8081699068 -4.0278941608 
5.9866875105 -5.5377672677 8.4930219007 -9.0405617184 8.4823193623 9.7768094042 3.344698418 3.082386635 5.5198455334 
6.34016879 -7.7684452245 1.2858555067 -1.4270198598 7.6244952478 1.3268213265 -7.538286476 -0.88286437977 0.96164010331 
-0.76781043663 0.96392416819 0.085509972382 -7.3644275056 -0.2870858665 -3.4686256898 0.78899673379 3.1580314055 -3.573284088 
-6.0380980748 1.1101566924 -6.8847490228 8.4561143414 -5.1054209511 1.2923419824 -0.21995414135 -0.94489098462 0.84063178199 
-3.0199393366 -7.4680525703 7.8519049433 -2.7338679317 -2.0526484961 3.0319706058 0.66321816514 4.331895639 -1.8313195099 
-5.8290700539 6.3415305346 -0.83905553632 -6.0358123568 0.25337718647 -1.6375560108 2.5301694162 -0.95335309281 5.4870182649 
-1.2953613739 2.7977031646 1.4962422921 -0.22735931451 -3.7759580141 -8.3323247415 -7.1748942468 -7.5301828085 6.8631122685 
-1.1015703291 -4.8335239614 1.3419046082 -3.5088593554 9.157060501 -3.2942280785 5.8698857512 -6.2297190481 -2.5346913347 
2.53593234 9.412946601 -1.6941763702 5.0037976021 -6.5164660409 -1.0335747518 -4.6766140506 -1.9656748976 -1.361239158 
3.649758239 1.8337126254 0.69742408505 -5.232811054 5.6711577479 -0.87083525358 1.5661150996 4.7883105586 -0.66556687901 
0.47042268903 -4.4851004558 0.30514698337 3.3766758669 1.7818986732 -8.6413932992 -9.4211548522 -1.2448566619 8.3996461019 
-4.3880462784 0.49048709051 -4.1380592119 -0.33423912957 7.9109588038 4.3111299923 -1.7776291809 -3.9299787003 1.8039745298 
-8.0381402631 9.4894049446 -4.140473509 -6.5857272027 -0.073783914144 0.23109988993 -3.6817292591 -6.9772562931 2.0485117289 
4.4654955241 -2.2286193624 5.127640765 7.1327278057 8.445983783 1.8338953537 -1.8516945906 -3.9772790876 -5.323514974 
7.6880121624 6.325215223 7.4028277913 2.6721816642 -2.1965188839 -3.0632746291 -6.5743351769 8.5571486416 1.9752771522 
-5.1394374919 -3.1763451213 -9.7529566655 4.3402286235 4.8389108415 -4.3758058292 3.6562415899 0.061177291696 4.3794493886 
1.2850628231 -2.7287866109 -2.276365741 -5.5687287027 4.2311361112 0.47346713072 -2.5123569196 -0.54652319299 9.8436051197 
4.0388130766 -4.9218161866 -1.3832268164 -4.290142112 5.4880151381 1.4047813444 3.6196767281 -1.1509457098 -4.4083670923 
-7.2026761743 4.6519267734 3.2451160613 0.25385246786 -3.6302842218 2.0932236001 -6.3432620588 3.4737663165 -0.53605744965 
-2.4654588842 -3.890023172 6.1716683657 6.9548277663 -2.8344832247 8.3129492429 -6.1646119836 2.1210392575 5.5116645572 
3.8694774604 7.6241272563 -3.9328908513 -4.9054002224 -9.54377879 -3.0233637116 4.1258169487 -0.18004461391 -6.7771079509 
-4.4538555525 9.891371227 -3.20734796 -2.0221248191 7.7332307985 -6.5858722295 -2.7693266637 3.6025531478 -2.530272428 
4.9569617993 0.21849376305 4.9910244604 5.1549922504 -6.8767755769 6.4722651442 1.947274252 3.1421470029 -4.5999975549 
-6.1460679637 2.7342488963 -0.4033872161 -2.8199234451 -6.4215195212 -4.9501967643 -5.0552625631 6.6840105358 4.4084981636 
0.77754142127 1.4543219493 -9.9136260467 -3.8779082428 -0.22678416858 -1.1991312238 5.7416102833 -2.6908790249 0.46746350688 
-8.2138619865 7.7628209558 -9.3503805379 -2.5141390723 -1.6947544804 9.2435800213 7.1007133912 8.8586041853 -0.71549956426 
-9.1051044923 1.3989656934 -5.4025911993 -8.2142801853 4.7872272461 -1.3454117295 -5.2690926368 0.12412579515 3.724190822 
4.0399171757 1.9148444584 0.096185120908 -3.9241896427 1.4182043429 -0.050603002683 -5.9532272855 2.1021746163 -9.7941201985 
0.23505661756 2.315245237 7.1537956107 2.8136882512 -0.54944265994 8.4827260403 0.65256808832 -8.0482458076 1.523662791 
8.2320670961 0.51228165596 2.2257841583 1.0930085048 -0.0036525330379 -0.97464678541 -0.98164220302 0.46141623076 -0.49117961552 
-2.0969800632 -0.59148666576 2.7240436539 -2.1218491494 4.8271748073 3.6154006181 -4.0309180492 1.6491474475 -4.2746162617 
9.2047122236 8.4095654026 -9.2261775064 5.2900864216 -8.2918100292 -2.567864828 3.353113353 -6.6410443396 1.5875693442 
4.8224909692 -0.87605751697 -6.2455179856 4.4991844425 -3.4057553477 5.3507101767 -0.0018172944846 -9.4077514275 -5.6640966008 
3.8765179946 9.7772695585 -3.9268174842 0.99658810656 -1.5336363811 7.7662898006 6.5990334412 1.4473059806 -7.0288592229 
3.0335511664 0.96907692919 0.083147219264 0.9172174535 0.3090655528 -1.2416401561 -1.4808946464 -2.0800378197 2.0816718573 
-5.7132225077 1.1806426214 -0.93209112077 -8.9801746245 7.5052100601 0.4562645019 -5.6618309426 -0.79818381282 6.4138709822 
-8.0518345635 2.5985952474 -3.9672184442 6.8478494093 1.57750081 5.5221161006 -6.7860673895 4.7388600774 0.60025702739 
5.4006944747 -4.2382343913 0.5903386549 -0.49819277765 -8.5767421442 -6.5988017001 5.5138570812 2.0484558734 2.0779300317 
-4.2279180089 5.942051799 7.8136672341 -0.44243511409 7.7809055883 -9.2678845785 -4.2729600832 -8.3125170996 8.1688903179 
-3.4399117342 2.551360637 9.7402194417 -1.9563566465 -1.0168642176 -0.19612510693 3.411939626 -1.6207990961 8.1356403754 
3.9460473754 -5.9566114551 -5.3737740676 -7.4797463859 3.5779437131 4.3481828381 -0.28852929761 -2.3226767224 -2.2373679812 
2.0636679927 -6.3458708527 4.2217674795 5.737078091 7.9394424854 4.933736513 4.8906867248 -3.4224569145 2.6696920496 
-4.1288534476 2.3292891821 -5.0512862146 -2.9522155634 -3.1685568202 2.4723364181 2.7139066594 -4.6171961572 -1.2071867886 
-5.3985909156 4.7108011061 4.0638096644 -2.3389468948 8.8004984281 1.3037233675 6.103095925 -0.60428621324 7.2614886519 
5.608367227 1.6382182771 -6.326040372 -6.2017577696 1.9663291532 -7.1804116723 -1.6134226838 6.5982743289 5.2087586788 
-5.9257700022 -4.1320206145 -1.174099687 -1.6774348174 7.0189459628 5.471171304 -1.083082533 1.5949094545 -6.1730322422 
5.9676164289 5.9176292939 0.17454972317 1.5765676488 3.9072013371 -8.4451561398 9.8963279337 -6.8469617011 -3.6014063522 
-4.3220300043 0.98222926918 7.9817019073 0.3643351079 -8.5490007243 -4.4772101544 5.0606978304 -9.8948320847 4.6239898595 
-3.4471786574 -4.2988819383 3.1645137834 -4.3290573118 -0.50155512383 -4.7510363868 3.5767942592 -1.1756607941 -3.6283884131 
2.4803403223 1.7694452101 4.5796571458 0.66991396617 -2.2197054078 -0.95694461693 1.1411248061 -1.1488236552 -2.796109071 
9.4395859965 5.1407475648 -6.2735218046 2.4274716233 5.0235728989 -6.7963544567 -7.1852605471 -4.9676669697 1.7466526766 
1.0644285185 -9.392761512 1.3505692329 -8.9218724449 5.7490665235 -0.8875208114 -6.8362435912 1.970689227 -9.2511808073 
8.1891460632 9.6537098128 5.8766506598 0.53205083943 -6.622153732 -6.7751506089 -9.8073565405 7.7551179776 6.6661580629 
-3.8364525434 -5.2035987275 -5.4197684164 7.3093140154 -3.6457275116 4.6111057361 -4.5375720647 1.9651262351 8.9509297429 
-5.6375898787 2.6488840081 -4.998946897 2.6661657641 4.6058015125 -2.6728593159 1.0055559049 7.869821407 -3.3125535679 