# vtk DataFile Version 5.1
vtk output
ASCII
DATASET POLYDATA
POINTS 1244 float
-13.1111 -7.64065 -5.46779 3.97297 6.02344 -15.8884 -1.23346 -12.3343 -2.20935 
5.97061 8.37456 -5.68216 -10.5626 0.290307 -0.663565 -7.65683 0.660176 1.84991 
-6.43716 -6.63646 5.28154 0.112001 -3.24682 2.63213 -9.59033 -8.78778 23.7427 
-22.0688 -23.1919 2.1326 -24.1342 -1.74591 -4.59632 -20.9194 -20.6862 4.81929 
10.1765 10.8941 5.12062 -20.1123 -24.3588 11.608 -14.826 -6.93101 20.9134 
-21.9915 -23.7027 5.41922 -14.1387 -10.5868 -9.82358 -11.777 17.5323 -16.3304 
-9.2203 -20.0619 -10.541 -14.5448 -1.0077 -14.7532 15.651 5.52217 15.0516 
-18.7602 4.41662 -18.7579 15.3727 1.21374 15.3787 -13.1289 9.98523 -13.4748 
-9.78145 30.847 -9.21241 -17.1163 0.265145 -18.3544 -23.5544 13.0909 5.47457 
-20.8263 -3.23762 13.4837 -25.5784 -7.0682 -8.22975 -21.9673 -25.2449 10.6707 
-39.1381 -4.28666 4.6364 -23.0325 -25.331 -2.07384 -26.8315 -11.522 17.0164 
-18.5703 -4.4807 -4.84732 -21.4885 16.4581 19.9522 -23.9618 -0.136632 14.2707 
-27.6045 4.26488 -8.42877 -4.55527 8.03372 4.05369 -22.5738 9.88229 -18.8688 
-33.6261 5.32171 16.0696 -23.6145 0.842179 -18.0023 -1.06962 -3.27294 0.527784 
-23.5054 -4.57828 -2.7901 -22.7606 27.0041 4.87657 11.1813 -24.4995 0.0181392 
-3.40329 -20.607 10.0207 -12.9 -19.1124 -12.9145 -5.98225 -32.3487 7.68505 
-29.5762 -28.9683 6.73631 -5.7332 -32.6931 0.271064 -15.2973 -23.0736 19.4879 
-4.40425 -20.98 -4.2162 9.49173 -22.5747 22.8061 13.5538 -3.72765 -25.0316 
-10.5214 8.08523 -25.513 7.38261 3.68347 -6.05345 -18.2434 10.0387 -23.7706 
16.3348 5.5156 -32.74 -18.4149 1.47141 -23.8275 0.261657 -2.63325 1.16014 
-0.632127 -4.2653 -23.2881 8.77318 26.9119 -20.4521 5.01706 6.86503 24.536 
-6.42919 -9.48686 12.4359 -13.7204 -11.2771 -2.43979 6.97641 7.06754 -6.36638 
-19.4491 -19.9614 4.36827 5.19825 5.35308 14.4828 -11.4043 -11.2268 7.05048 
-1.16128 -1.2773 -7.45791 -3.16504 -0.866341 32.4659 0.970196 26.1082 1.08648 
-12.6211 7.8498 -12.3275 1.41823 3.94081 1.56041 -15.6861 6.59352 -16.7242 
-2.0074 32.5556 -2.06127 -12.6439 -7.16272 -13.3438 4.74408 5.24917 5.57522 
-6.48709 -10.3382 -6.69678 -0.523886 34.136 -2.56339 11.6271 -18.8338 -14.8903 
-18.1894 -1.02771 -9.56821 1.10791 -17.6597 -20.528 23.2404 2.90844 -6.92069 
5.49314 -27.0128 -12.535 -14.8524 1.28423 -6.43667 7.46395 -19.909 -21.2702 
24.4816 0.757331 -13.398 3.51909 -19.669 -13.5707 4.258 -22.1052 -2.96039 
-2.17873 -22.1589 21.3064 8.57651 -22.4168 -6.87218 11.7012 15.4587 11.2826 
8.39304 -26.2398 -8.81016 12.2431 16.2698 12.9282 0.165752 -21.0117 -6.05145 
-14.1237 -1.27871 -5.20295 11.1672 -25.7155 9.48471 5.46565 14.5573 -27.769 
5.64309 -9.64037 -25.258 -4.15615 9.33818 -6.40225 6.50765 -6.1731 -23.317 
5.15527 23.7922 17.0702 2.40563 -7.67492 -23.9936 15.5846 10.5518 -6.60138 
-4.54546 -3.0583 -20.6104 26.9509 5.4638 -20.3128 16.6043 -7.84939 18.5172 
12.9036 -5.6484 -12.3161 5.26869 10.9115 3.53086 11.397 -15.1287 -15.069 
12.2373 -15.5982 19.1509 -4.75447 -13.8948 -13.4015 7.2344 10.8517 3.46493 
-6.88677 -4.97771 -5.00215 32.7454 0.493235 -4.87916 1.79832 -12.0829 5.56955 
-18.8783 1.26954 0.915021 -17.7398 11.3121 -6.51336 -8.69346 -12.5206 4.77763 
-7.51512 12.4118 5.41834 0.580652 9.84367 24.3949 0.0830691 11.3111 -4.18282 
-18.5106 -0.496184 19.1852 -15.722 -0.89853 17.3859 1.47882 -6.99866 -15.1136 
-20.0057 10.5101 1.60154 -19.4335 12.9848 6.31364 3.19724 4.15911 -11.7474 
13.5429 14.3246 16.5047 4.68581 6.37679 4.1497 -18.5065 -9.77309 -6.20423 
-4.07743 -11.8312 14.7578 0.0288629 8.56649 8.79067 -18.3109 5.47974 16.8462 
-0.0381362 4.07075 -7.42272 23.0983 5.23957 10.8479 15.7816 8.01377 10.3672 
1.85393 -3.47276 21.4297 6.02635 22.4501 13.4386 -4.96013 -14.955 15.4116 
-9.20669 -13.1761 7.49029 -3.76938 -11.6168 -9.68715 -10.5493 1.2895 4.05523 
12.3658 4.12741 -2.81562 -9.12681 8.91627 18.6483 -2.87022 18.9581 4.94842 
-8.13605 -13.8495 -0.192841 -8.84083 -20.5572 -1.36444 1.55827 20.7439 -0.190167 
-14.7747 2.61644 15.0663 17.1581 14.014 -8.15803 -3.22716 17.6453 7.18818 
13.1054 11.8619 21.1996 -4.34224 4.3299 -13.4167 -17.272 13.8943 -4.89596 
12.0088 6.30458 18.8432 -5.72385 10.2314 -10.987 -15.7101 -10.8154 12.8391 
-11.8616 -14.5742 -5.99981 -3.93251 -5.10001 15.178 3.92499 -13.8971 3.52481 
-9.44143 -14.75 12.7081 -10.1574 -12.4842 -3.2346 -15.3368 2.1823 15.0574 
-15.932 5.63925 3.34958 9.38626 9.86157 19.887 -6.06053 17.931 4.73322 
-1.95757 -6.91736 7.32849 3.09327 0.76601 -4.96712 -17.2355 3.44664 13.4834 
-18.3126 1.98126 -1.48077 -1.36544 -15.9589 -9.25617 -3.5313 -3.30338 -4.44924 
3.16825 7.53825 21.2575 -0.0386765 4.22445 -6.78665 8.98822 4.40749 21.339 
-0.215903 3.62884 -3.05436 -17.1496 9.07438 15.4239 1.85734 -8.31632 13.8705 
-13.1367 0.61949 9.85492 1.6681 11.0359 -7.64873 9.01216 6.93937 25.2883 
4.70614 21.6372 8.2392 -16.0007 3.03133 20.6791 -13.3916 13.6485 11.6507 
6.49064 -9.8944 10.6471 -18.4167 -4.7379 -3.17833 8.32669 6.00796 22.1855 
-7.48865 -3.34814 -0.59719 -10.9418 14.9978 5.57972 12.1933 -0.243526 15.4377 
-1.42604 -1.649 -3.50695 7.98207 15.1304 -2.37958 10.6732 -4.5711 -3.59389 
-6.46109 13.6306 7.30459 -1.76583 15.3692 -14.2185 4.30169 7.39968 20.5551 
14.8723 4.96407 -11.4163 -11.156 8.13968 4.86528 8.13506 7.33541 4.84566 
11.0425 5.4051 -14.3437 -1.50857 24.9214 -7.12998 -14.9007 -4.05795 15.7649 
-0.288361 -3.63279 -8.70275 14.826 5.74493 18.7386 -4.81705 22.1515 -5.39206 
-17.4876 4.51388 -2.98868 -20.4334 15.2639 15.6426 0.831554 9.60166 -15.7254 
13.596 5.60946 0.38273 -1.17272 -6.46364 -3.84781 12.9432 -2.75685 -3.99389 
-12.8509 11.5782 -4.01912 -0.928756 -2.01567 12.4408 8.30904 13.7387 -13.6783 
-0.932563 7.3202 4.99016 -6.83402 1.07628 -4.92061 16.0995 7.52583 4.32826 
2.77284 -1.16734 14.3717 -20.27 -0.361323 1.00179 16.7189 10.2214 -10.2515 
-6.06623 18.1752 5.13628 5.07566 15.7859 -5.46795 -21.0894 8.36022 -1.58751 
7.30054 19.2256 13.2614 -9.88426 3.5362 -6.8667 9.38232 15.0575 15.868 
-6.30749 4.67215 12.2616 -19.1161 2.139 -9.39414 6.20074 -6.42373 5.49982 
4.58803 1.09075 -15.2496 -3.01493 17.6746 -7.59413 -5.38645 -3.85197 11.029 
-1.57333 21.7178 1.95678 -9.28068 -0.532975 -5.55389 -4.81297 25.1391 8.93975 
-10.33 -8.45981 18.0571 8.83606 4.27259 25.995 3.22348 24.2937 1.53086 
-15.0369 18.4838 4.2294 12.4115 -1.50724 5.11666 3.29209 -5.36454 15.9203 
-1.45491 -2.05142 -1.47744 -10.6836 9.19931 20.3819 1.1165 -7.78488 13.1789 
-3.79992 15.2323 -10.295 -9.35223 -1.08112 17.3676 -12.76 -7.86362 -8.18556 
10.2647 16.3566 7.17421 20.5927 -5.59759 -1.60951 11.1742 7.67464 0.533606 
-10.0448 -1.53684 9.19176 10.7929 -5.10245 -5.43858 6.60554 16.6419 7.55592 
-2.87773 -11.787 -7.16105 -10.427 5.14501 11.1836 -28.4141 -3.57014 1.86744 
7.63912 2.79821 -11.7752 -8.31574 12.4162 -0.927409 -1.95717 7.50835 18.2438 
11.2671 3.6547 -8.27422 4.01147 -7.00225 13.6156 -7.03551 8.52626 1.77403 
4.41607 -6.52815 -12.0404 18.7667 12.1238 3.70021 -1.17842 16.4422 18.3616 
-1.35438 21.2512 0.978755 -13.5308 2.31093 -0.148294 9.4853 5.22018 -5.45131 
-2.10239 -9.80645 19.9201 21.9425 6.10208 8.92151 -10.4497 6.47533 -2.32578 
1.70406 -5.67147 16.8863 -27.3116 -1.75517 8.34471 11.3716 3.42326 15.4198 
1.88521 4.68329 -5.60254 -9.66671 8.1846 15.8285 11.1608 -9.82546 14.6418 
5.71143 0.3077 19.8353 -0.140311 -3.42455 -3.98589 0.769989 3.12298 28.3203 
13.2771 -2.83029 17.6992 0.227443 4.99331 -1.85483 5.48483 14.9347 17.9778 
-14.6621 8.04622 10.3587 -6.94075 9.93028 3.16588 9.22866 0.44227 17.6419 
8.91177 10.9322 -8.74438 8.30337 -10.184 -0.0227176 8.04078 23.849 7.42049 
-15.1595 2.26782 15.8223 -1.1762 -0.0981142 -10.0435 14.2709 -8.65737 11.5905 
-17.5916 5.82565 14.8842 14.192 -1.11872 -0.281737 -7.30759 5.23562 24.6033 
0.072263 -11.1046 13.4151 2.06333 11.5481 -15.1185 -5.91208 -9.52988 -9.16883 
15.9693 10.2385 3.05365 -15.288 1.48871 1.67526 4.83545 -1.69188 -5.09552 
-0.866185 -16.3859 9.04105 11.9247 -16.1818 4.43548 16.6009 -11.0778 9.3679 
1.05121 -9.02925 -9.67572 -2.29804 -2.92143 -12.1673 6.37915 9.5069 4.78314 
10.5018 16.4724 20.0477 11.6509 7.66524 -7.79868 -16.1394 7.96425 14.391 
4.55689 1.29592 9.70401 11.3189 -8.9045 -10.4674 -0.0365761 1.25153 9.29768 
-10.8916 9.00771 4.47342 12.0171 -9.53167 -8.80488 23.2905 12.6035 16.4999 
6.4039 -6.89562 4.59929 -1.8805 0.474437 15.6396 11.2187 -3.80353 -6.07159 
8.56949 2.10404 -0.411191 -7.09455 1.89989 16.9352 10.4294 -0.408336 -9.76269 
31.4695 3.02981 8.45764 27.4241 6.5261 6.60097 17.6458 -4.54539 19.1365 
11.2662 23.8419 12.7472 15.1645 0.688107 20.1769 4.57518 -20.1558 9.50266 
6.75696 -8.92609 -8.95303 2.58386 0.397723 1.6912 10.3917 -3.33348 -11.0587 
7.18723 -2.49098 -9.67647 2.29384 -6.47786 -1.65843 3.94068 -20.5025 1.62474 
7.40499 -3.03566 -12.9059 11.7464 18.138 -3.47961 7.23696 -11.5581 -2.30023 
16.8124 -0.124409 -13.8768 1.56396 16.1307 -2.21107 19.2213 8.14048 21.8495 
7.04744 2.81216 -12.5881 10.8798 2.01233 -12.5322 -2.53537 10.4413 13.6334 
6.01067 15.5695 -9.63917 -10.5553 -2.8386 17.6997 -1.78236 -11.6866 2.17146 
0.232153 15.5255 13.4398 6.85337 10.3205 16.6146 0.961954 -7.14571 9.48825 
-12.747 -5.80273 15.5508 -2.80361 0.597676 20.6528 -5.7189 4.70819 4.40076 
20.0188 10.5115 20.8258 7.54924 16.1344 13.5892 22.8239 -8.13279 12.8183 
7.37876 -21.5239 10.4542 0.449595 0.559692 -4.13501 -3.90712 0.49577 8.63463 
-9.38419 0.50796 -2.97562 20.1687 -7.17751 -0.935232 14.3698 3.94346 23.442 
10.2691 3.36619 -8.68886 18.6411 3.11182 21.1478 9.24445 3.08685 -2.68209 
-8.07682 4.77465 18.3882 11.7587 -7.67298 19.8318 -2.02933 -0.572763 8.74351 
10.4204 21.5948 -2.37072 16.0385 9.03986 23.2409 3.14713 2.81084 1.75756 
-5.03603 9.69983 19.8366 5.16384 15.9207 16.4704 17.057 -8.35916 13.787 
-5.08673 -3.68 -7.65554 19.9941 13.5321 24.5874 -9.78059 9.31806 5.94303 
-1.16976 -13.1397 12.3345 4.12534 19.4846 16.3771 18.9329 -5.18247 -5.33402 
5.2839 -16.6775 2.83359 3.57832 17.3041 3.0718 25.6583 13.5591 1.06327 
7.12911 17.0997 -10.3653 14.1881 9.12701 21.89 23.5124 3.56016 -2.82878 
[...]
CELL_DATA 2484
SCALARS scalars double
LOOKUP_TABLE default
-3.4611583869 -7.3877183633 -9.3111088066 -4.8355513357 4.758865787 8.9896380787 2.3619163532 -1.0325107341 0.96214218119 
-6.0763402926 -1.1268666785 -2.7825681895 2.7596904967 8.5299852423 -3.102910389 -1.3784553778 -4.025948483 5.5885074694 
2.5325647666 -8.9993836247 -0.20099203396 2.873325242 -0.96132654264 -9.2412667302 -7.244154317 9.9140028498 7.4906302502 
-9.3795344213 9.9763944501 9.7899914108 9.7246415858 -9.7448943336 -9.988908995 9.7303448569 -9.9953245873 9.9963433761 
4.6554232273 6.9395990565 -9.0980100757 7.1984933819 -6.9455381084 9.6191381811 4.4997461992 -7.0652405302 -0.065350038823 
2.9754886446 9.3965509065 -4.5551508712 -4.6825473377 9.8160600663 -6.0094449684 -7.8659504297 8.2605602248 -1.5820799867 
2.3518690625 -4.3740290736 -3.4999569597 5.7342965611 -0.063565377022 -6.3240283025 2.9808107982 7.3310012292 -6.1848122958 
9.1733422227 6.6785778085 -5.5433211422 -7.9142857405 -6.6300765913 -3.538403521 -8.549354344 5.9009253369 -3.8264694842 
9.9891661927 -4.1043320216 3.142221422 -6.8245403628 -9.6292726997 8.2113224067 -5.8133090741 8.239990295 0.62631264028 
-0.2455635952 -8.0412661404 9.5772284064 -6.0985614735 4.1144959616 -4.8392201309 -9.8495817297 3.4725550633 -9.8640359841 
9.9058444005 -7.7742565933 -9.6109526501 5.3449226705 7.7600945634 8.2457253586 4.1740791995 -9.6287387355 9.9405155411 
6.177398652 -4.115772181 1.2185099624 -5.1908349995 9.850342856 9.8825557726 -9.8630349 -3.1862467932 -9.8869490087 
6.760288023 -9.5014496632 -9.1646478243 9.421543895 1.3780629499 -0.91995399184 7.3676316836 -4.9560796494 -9.7547930415 
0.056254910532 4.16986173 5.2246307118 7.4806436362 9.8972911346 9.9699235102 -9.7358115837 3.6645377646 7.6021252118 
0.57900552828 -8.1981864888 4.6724556982 -3.208433951 -5.0826294157 6.6463043613 0.056621320926 8.6885555123 2.0754584434 
-8.7667276027 3.4379308664 3.4063977806 -3.4226776686 -4.1245974633 -0.26560163632 -7.3300049749 6.9317024194 -0.52746251836 
3.3234933107 5.5360763157 -0.44977351408 4.7755069177 2.6819888969 -8.1223317389 4.7323836212 -1.5609474139 0.72467803607 
-8.8684659998 9.122540026 3.2281509622 2.1155140717 9.3248831356 6.5484142159 -2.7591981371 -0.51370148371 -0.48986524162 
-9.3666266365 -9.0395197508 -8.418864903 -1.3224997109 -6.060514523 -0.81710337891 1.2571516714 4.4176409597 -1.6963072798 
-3.8797751869 9.0091813747 -1.2532517212 -0.14968447237 -7.9096659507 9.876169802 -1.0260179901 7.9396253126 -1.1576923322 
-1.6452903619 -9.8220139787 -2.5951619858 -5.8466554774 -8.3749895387 6.2002169633 -9.6003926181 -7.9493501103 -2.7241488757 
9.5771607741 4.3901941915 -0.31616087484 -5.6085859805 -2.3294992507 7.7907881526 -7.4498507764 9.94936597 -9.9220478617 
-3.3811978803 -0.59036718078 -3.1421930066 0.10621193104 2.9973533166 3.6829190649 7.7544028657 -3.0206117053 4.0136713761 
6.4225282809 -1.2067444862 3.0430921533 -3.7109083842 -0.34998670125 -7.236730914 4.2400898786 7.404428846 5.2613029335 
6.2008479092 5.5196445703 2.097845828 -4.8759994376 9.0958221079 1.2420991973 6.8650930923 -8.7668406994 -0.27116646831 
5.7376628638 -9.1393392966 -6.6910390349 -5.4296303061 -9.6418523194 -9.9013943647 4.6737264113 5.9536739472 -1.219142263 
0.22657670885 8.540085094 8.4253800066 -7.3457922753 -2.1427054299 8.7047596561 5.2521267378 -4.2627436715 -3.48759321 
2.4825030435 -0.036054927983 3.5133334873 -2.9045034049 -8.6556437567 -3.696743885 6.155826899 -4.7966692916 -7.3759382771 
5.5647044672 5.1372251695 7.0726174826 0.64890665545 1.7496421401 6.7791403079 -7.1908917065 -9.1405161066 -6.5202361479 
7.3402405981 2.3161642794 -0.88001745172 -2.1712436843 1.2726577387 7.014258585 0.320896857 6.0236276154 -9.7649190144 
0.45014540792 7.0391738529 5.5707040525 -7.5070784709 -7.6391284943 9.2450227763 -2.1763755055 0.80360698507 -0.66424257357 
-3.6872637664 -8.5589433174 -4.1811012187 -3.8440082299 -9.0644540532 -8.3145392709 6.6340461804 7.6290738491 5.1645351245 
-5.3737933586 -5.9142490192 9.1902457986 1.9059920019 -7.5987318259 -8.3805308358 3.9904352633 6.1791702877 -3.8049376202 
2.1372206402 -0.14832501403 -6.7107316616 9.183471228 -2.2247840234 -7.379278716 -0.63271112962 -0.27706576634 0.60919807015 
3.9368325826 -5.705888379 -8.6496442952 8.2887103239 6.8863327281 5.0928677787 -7.3133003196 -9.9811198005 5.9094299251 
-7.8915826978 8.8111729821 -7.457576217 7.5192024815 6.7718221135 5.883461419 -8.7498186848 8.0073700808 -9.7442563182 
-9.5846882664 9.2999141156 9.3496028148 -8.9612351795 -4.5231130566 -8.9780727994 8.2961225623 9.7300100791 7.8283596717 
9.7436615114 -9.9397672039 -9.9188317242 3.1973441197 -6.1041283995 1.1998702659 -8.9976918122 4.4564643053 1.1518273213 
5.1270592932 2.1722763952 -5.0804763395 -7.4787046971 4.3226455602 -3.7960691723 8.3305140436 -8.9913150673 5.2123122603 
-3.635344217 -3.902670589 -9.4387952696 -4.6183161056 9.6465701674 9.2903352847 -9.2505760796 -6.513792479 2.1368033306 
5.8834287986 -1.9470189419 -7.6301110675 3.0554379338 3.5608114931 5.9399910268 7.1622325405 -0.4335037556 -9.4100670494 
2.4002273242 -2.98663899 -9.4698193915 -7.0687713553 3.3898434979 -8.7344633445 -9.974958162 -9.2388889565 9.7612847761 
8.9408243671 9.5407542278 9.5008006896 -9.0637436742 7.160166361 -2.6620133914 -3.4238631879 -1.2240916151 2.1177472313 
6.2552214331 0.9957068765 -3.3569878131 -9.8392174148 0.16349866227 7.7376641811 1.9631843176 5.1463782244 5.1732992653 
-1.2949697973 -6.5162233993 -8.3055098172 -4.9798381658 8.8195971727 7.9850658877 3.5387677904 -4.6089141274 -4.5121834349 
3.131814636 3.6824523266 -4.34935229 -9.2111403872 2.3659093823 5.0902361828 -1.1774636834 3.1452561342 -5.7983431391 
-0.69115520944 7.4953915949 -4.9550287238 7.0524194427 -0.75832309979 0.61224762786 -3.4350228185 -1.668869273 -0.76516241444 
9.9676525567 1.5150929015 -0.64302855922 -6.0744278563 4.5696093744 -0.27340160304 -6.2519627099 -0.22277725825 -0.14703049465 
-9.6512524408 -4.504591609 4.7276883625 -0.26100460085 4.1220905961 7.4098282833 7.6117297139 -9.9565091861 -7.7850219867 
9.9037431358 -9.9856978485 -9.8832236236 -7.7936548329 9.9754134745 9.9845262133 -3.3461941634 3.9522195967 -4.2229784936 
-0.40116336033 -6.0316608951 4.6952854557 -5.6270571816 9.4677581584 -9.9798858843 -8.4507043746 9.4307341047 -1.1939027464 
-3.5964505318 -8.7120531298 4.0080593585 4.1256498316 -7.8315353427 2.9064478847 -3.2514739388 -4.4689724507 4.1145725538 
-1.1407903333 -4.4403126954 6.1196446289 -6.819595834 1.2994646506 1.1810037292 -7.9495505474 -1.0177146643 1.9825890051 
-8.4048850299 1.3865443676 -6.7277248769 9.2306961185 4.0922542464 3.1580378002 2.2475387235 -0.19477310441 5.6802951598 
0.15620491264 2.3355301213 7.3779790372 5.651456969 9.816279396 -9.8885634821 -6.5468573789 2.7470864546 0.46237441885 
-0.024553489429 7.1016127904 -8.9238703862 4.5700503203 -1.8024124368 0.13116756125 9.5214301618 -1.0119339691 2.5374084383 
-9.3802382049 5.7796270815 8.9875392018 -5.7595163031 -4.5473449785 9.7391748155 -4.7865618933 -9.9121393261 9.549182563 
-8.3996674328 0.42231375331 -1.9618787646 6.88625958 9.8987738987 -9.9035099728 9.7739445923 4.8106303546 -9.6993407413 
-1.4387126056 -3.5176311186 9.9343476041 -2.7468868362 3.6431506737 -9.5593474041 0.48349106447 5.4131350071 -4.8010691919 
5.8315762096 -8.6538739785 5.2723903898 -0.56722543262 -9.8212108171 0.85361670356 4.6473200279 1.9537895878 -1.2614497144 
-8.6160736225 3.6973200117 2.6438557412 9.3748703467 -5.8380597967 2.7560652478 1.4254595372 -7.9865179338 3.4337349449 
4.1705475524 0.30663343279 2.2747666238 8.1706973228 -6.5941663637 -9.2546802338 8.304862251 -9.3897702774 9.8798147962 
-4.6037406806 -8.3428991116 1.2872371178 -4.8702954349 6.4481384465 1.4921262428 -4.9610241743 2.8454335216 2.2931080087 
1.2605929007 5.5309928033 -7.8997056776 -0.94061689358 8.5966146334 8.9621122483 1.8044136741 -0.13482209847 -7.0271788653 
-9.5837031421 -6.6243150434 -1.0858870983 -2.7882660468 7.8989027558 1.752156909 1.618575881 1.8259881845 1.1507830179 
-2.7129628057 3.025957997 -7.9315218043 1.6224118937 -0.7724907296 -8.4636833726 -8.9412973767 -4.1777065301 1.9761384665 
1.699101119 8.9565223995 5.6097263008 -0.16847054318 -0.61072354707 -5.7940436231 1.2675237591 5.0338603797 -5.205857169 
-0.0081140630388 6.6186668846 -8.3515034835 9.1361342845 8.6078452912 6.5271918632 -2.8273178348 -1.8946391966 -4.941567574 
3.2086715263 -1.2948628941 6.3584605543 1.2770639371 -3.4058557226 -3.5170380716 -8.8731059104 3.4834579259 -2.9489101828 
-5.8939997819 1.5524368207 -3.7014818926 4.329685698 -1.2618928136 8.435294051 -4.3944962418 -7.0911270707 -7.387433732 
-5.8335474901 -8.2496714872 -3.2007698645 7.3027064488 4.1901817519 -2.8903703234 5.3535715073 -7.7914007024 4.1232500087 
0.83200992887 8.0843843959 0.09107279398 7.8448528834 -3.4647304472 8.4357035318 -2.4991064236 -1.0493183679 -4.7257455562 
7.8376424498 8.7424959004 -6.3960201598 -8.0975771618 8.8671600956 9.8396546854 1.9233717732 -9.668273474 0.34460607633 
-6.5739375587 2.335946773 -3.3378353582 -9.8277045781 4.69502622 8.6375631736 -8.1048728045 8.8964575578 -2.9399954178 
-0.24334803043 -0.78171373723 -5.7333128919 8.976298102 7.5100384128 -7.8535475174 7.8772309227 9.3139575596 3.507803325 
-9.5206410606 -4.490560879 -5.5159400161 6.4369871676 -0.66148890323 -4.5863353277 -5.9906152412 -2.4138718965 5.0175222991 
4.0073981443 1.8834345321 -4.6576282328 -3.0531556631 0.79822298928 8.5339443021 7.9438106115 9.988864996 -6.2938892464 
0.056465263874 -1.7059858573 -1.3549231504 -2.9437270592 9.6268130272 -5.8470926022 3.5332840497 -6.6348529459 -8.1505151616 
-5.302481923 5.5321971385 -8.3490135188 -8.3804765531 9.962614436 9.1147127203 -3.1093314224 -3.6822819576 8.0516141702 
1.1443972635 4.0630071224 -0.011022642748 -6.7867843536 3.5577624655 -2.0727648112 -3.7870329392 3.97366488 0.95283133598 
-1.9840774546 4.6127066623 -1.5405423289 -7.5260280236 -3.660456094 -0.48354558729 -6.3541190048 0.65447494174 9.3196188101 
-3.9001129968 1.1318505369 -6.113433587 6.7361399503 -0.57030305164 -0.61353069772 -7.2757568683 -7.5483149306 9.8112725749 
3.1228391554 -9.0294251341 7.877967026 -1.2882265458 -8.121108221 1.6251003821 -0.78693632351 -9.9996568708 -5.7895409959 
0.80267589655 3.5816779061 7.9522696206 -1.7081834137 4.6507274126 -7.1123169606 6.5771870493 0.70128521532 -3.188909206 
9.252242394 -6.3825663302 3.8617097993 8.4226730273 5.1138211844 -1.8522684261 -6.0472925498 -1.3580757436 -5.5774818594 
2.5536606843 2.8104182764 7.5302585759 8.9012596339 -6.1538722087 -0.5196502173 -0.21521855872 7.5671897149 5.8328155134 
-3.5539324328 -5.9619326728 -9.2344433931 1.0859562312 0.27430826722 5.6267319024 -8.2406464558 3.5751872603 9.2720648073 
-3.5918823753 3.2794061378 9.7439744729 6.3219714591 -5.0146068397 8.5267507288 9.9100465486 9.340663251 -9.578699197 
-8.6506250436 -9.4451270214 -5.8618826222 8.7808687998 6.5879690794 0.015865020604 3.518168487 -0.94536444861 1.1173060167 
-9.7225387439 3.2413662055 -2.087051545 9.5965089211 8.7152874859 -6.2597369292 -9.597199194 -0.97694915953 -9.1932642235 
-3.6364059362 3.9525884596 8.4077993887 8.2901569341 -8.5197368696 -8.3040031013 -5.1830232991 1.0149033151 5.0709225773 
-0.62982092849 -4.7542887994 3.345829009 8.8282614785 -1.4715594728 -5.9820654573 1.7521596914 -7.8224437807 6.8447226193 
3.8559854334 -5.3118389352 5.2390737665 -5.5056465989 -3.8657016731 -4.9584446767 1.1902904412 -0.4704167681 -3.1922250714 
4.7293147091 5.1696726549 -0.30049047803 1.3080384335 -7.7758819679 8.7085559201 -5.371735841 -1.5388554147 -1.955713823 
6.2628629199 -2.1228756267 -7.2500572914 -3.8041837197 3.3247801752 -8.9206263162 5.1628313461 -4.8589170222 -2.5689795647 
5.5554013208 -2.9517935482 -0.83617095382 -3.2670557896 0.72630741924 3.0533231408 2.2006071191 2.1666490771 -2.5949192202 
7.4531686445 3.4878923116 4.5856053956 -6.9495253802 7.476068458 -4.0689623295 -3.5587499295 -3.7614470973 2.3745993987 
5.6301809652 -2.9438312906 1.3135817636 6.6315868098 3.8815161243 -3.9163289116 -0.96340375302 -3.5447205524 7.7516110227 
3.6785460093 -4.5068238455 7.4326103542 7.7392398431 -1.3173623099 4.033732043 5.7963278265 6.2829977401 -8.8107907263 
5.9179178776 8.4949625322 -4.1897563668 -5.5024347577 7.6475486281 -7.9325615638 0.51923170709 -6.8189330014 0.55824410801 
-4.5617619454 4.2250001876 4.3919930023 -1.6404855141 2.9978530444 1.8334762618 -8.2527352515 -1.3992338614 3.6280790069 
2.8375604183 0.25628936892 0.36179059976 -5.5718140003 -7.0448596449 0.37331079623 2.7884238895 0.54797799798 -1.9121747898 
-5.2060328668 5.2763700961 0.067596143543 2.7095844706 -0.23392453494 -7.1190533053 -0.066233822715 5.8102483872 -4.0360138761 
2.995418228 -3.6344308021 4.8781667008 1.482651235 5.2435809662 0.026517434023 0.35688843379 7.7033815737 -0.41595687617 
1.7846265741 -1.1639419717 -0.24074514453 2.4759276744 4.0370101734 0.90145133227 7.7262553165 -5.1960500269 -5.1269895946 
8.4614181566 2.3226842471 -5.7601153985 -8.6758870238 0.88515597301 -2.4894756585 5.520145092 -3.224817165 -0.45039583052 
-9.1248869015 6.09835205 -0.97917090639 -8.5626785797 -1.7831542511 5.3128685638 -1.1445015751 -7.6284499542 -3.8928578681 
5.6322034616 -6.1949699494 8.1555377886 -8.7692151203 8.4883948318 9.7202238834 1.1293620655 3.0176830585 5.4891264427 
6.3800935333 -7.1676192924 1.0693134365 -1.9628092031 7.6107078463 0.95801306691 -7.345151082 -0.59997519644 1.1965439078 
-0.67780387083 1.1464661648 -0.17374427984 -7.5715478252 -0.2302783083 -4.1167488942 0.9099063451 3.3249815946 -3.2856966943 
-6.219355898 1.5030398247 -6.8071553726 8.6184781228 -4.5629058903 1.2878767244 0.13272950783 -0.78031665954 0.67888284769 
-3.1060664939 -8.0635433031 8.136007407 -2.6647979591 -1.8893271135 3.2731415598 0.43256789112 4.6852205793 -1.8536643637 
-6.0531488072 6.6927045141 -0.4891588228 -6.1705646812 -0.74962892619 -1.280924883 2.9159591089 -1.3342553016 5.988992446 
-1.5721453714 3.0201531135 1.9469338529 0.041592058006 -3.9433809834 -8.8830246043 -7.0387578136 -7.4158054398 6.7984129422 
-0.8402476328 -5.6432076495 1.6898263005 -3.5216827372 9.1860821997 -3.1599345649 5.6445015598 -6.2395756762 -2.1415454354 
1.4452543624 9.1639070428 -0.98916507606 5.5082226911 -7.1423431084 -0.4947613159 -4.4237049012 -1.9648805961 -2.7852124891 
3.9245095405 2.0348663279 0.13308390751 -5.5017384804 5.915733881 -1.1779839302 1.8342166479 5.5072577707 -0.64142133763 
-0.011602303881 -5.0168729789 0.62967864329 4.4628782223 1.3744430348 -8.5691119479 -9.5711909678 -0.67985190177 8.2053893592 
-4.9462211707 0.55594642854 -4.7917581711 -0.19118014332 7.9168132769 4.2061160435 -2.0883118947 -3.9880933951 2.2556081442 
-8.3251564911 9.4788661895 -3.9364567328 -6.3960304451 0.61071341382 -0.038328384969 -3.190837684 -6.82233667 2.5676834746 
4.615501645 -2.4367947372 5.5367984394 7.1200239701 8.5733602053 2.3184269644 -2.1044446965 -4.0551577322 -5.3283297582 
7.2646947787 6.2032560825 7.4455526414 2.5466606229 -2.5944602929 -3.2901839026 -6.6527140304 8.4533225092 1.6967848017 
-4.6558412295 -3.3496805506 -9.783082551 4.570639035 5.0431688538 -5.7165523283 3.4201721356 0.5555771538 4.8315366601 
1.092898728 -2.3198826975 -2.7258059158 -5.8037626797 4.8653322352 0.45295260538 -2.5837759243 -1.1634262077 9.8698568415 
4.9614581501 -5.2168882015 -1.5136882852 -4.3179203689 5.6374986909 1.4250263609 3.8123524994 -0.56692595644 -4.4293123455 
-7.2906435215 5.0724567413 3.1114473686 -0.088989671724 -3.5379608741 2.1726137151 -6.4793697009 3.3875075034 -0.45316184408 
-2.5217753642 -3.8859098121 6.8026517482 7.0926028045 -2.9768012234 8.3924918892 -6.0965506326 1.6449114984 5.867519 
3.2834960834 8.5941002276 -4.1368958875 -4.8365488958 -9.5110853419 -3.0300896592 4.2273199852 0.66738460675 -6.8414000485 
-4.5532219616 9.8828050553 -3.4171297502 -0.63079309111 8.1038432012 -6.8647375552 -2.4100827736 3.7590629802 -1.0212673324 
5.4827156313 0.25744797082 5.1165527744 4.9644413049 -6.9596369888 6.7831572906 2.2515269842 2.8770682649 -4.0918438252 
-6.8873610355 2.9045665896 0.11853699412 -2.8667900656 -6.9338350574 -4.7174871162 -5.189704919 6.7047788024 5.1369481418 
1.189237446 1.6810710904 -9.9587472879 -3.6993996307 0.082810694904 -0.85178892449 5.8934560811 -2.2177889209 0.54315171572 
-8.3809654065 8.0623337178 -9.011724732 -2.6227895481 -2.0117562461 9.2007182886 7.092808498 8.832012197 -1.620224919 
-9.1556530984 1.5760624491 -5.0604536044 -8.1020959046 4.2736669431 -1.691387372 -5.2895630986 0.39702483138 3.6806977849 
4.1892157603 2.6167743292 -0.21186567976 -4.0986438802 2.3007429339 0.19574766491 -6.1243486974 1.6496783118 -9.7099645552 
0.30882785884 2.5464286312 6.848881992 2.076618317 -0.87638526792 8.7537621609 1.1689374242 -8.5052010894 1.495565105 
8.1349364544 0.40583646282 2.855261539 1.2095538729 0.0032316173721 -1.4400217191 -1.2302354487 0.1319556576 -0.54562035061 
-1.7928521223 0.021220840633 2.6079978078 -1.7123384551 4.8520444415 4.3929834625 -4.1306173275 1.4824442059 -4.8130403749 
9.2458500487 8.7009735371 -9.2722746203 4.699960849 -8.652702392 -2.8274307322 3.5871698854 -7.0837466536 1.8211409667 
5.0589419987 -1.1499585425 -7.1296482396 4.7466571211 -3.7394426767 6.1115747901 -0.091291442215 -9.6764654532 -5.4614857121 
4.3786617566 9.8865647586 -3.9986202192 1.1847350585 -1.8218855856 8.087651323 6.4142194975 1.5665405085 -7.2873021594 
3.4221869612 0.87295558209 0.2755582505 1.0115262333 0.24756995469 -1.1873476271 -1.760787369 -2.1528495391 2.1536176084 
-6.0472247882 1.4643342303 -0.084998162835 -8.876968488 7.7782444775 0.51053851746 -5.7459871642 -1.0814575858 6.6001639725 
-7.6530246613 2.4891581491 -3.8019099892 7.2857213278 1.126730622 5.5229039106 -7.0626559693 5.4806216006 1.1214642011 
6.0717042872 -4.9226229797 1.1530659757 -1.0298055319 -8.1210447704 -6.8676172342 5.6644972701 2.0032192083 2.0632619709 
-3.5955346935 5.6655129867 7.4885574456 0.20377856718 7.5832593717 -9.4356101728 -3.7554017352 -8.1711502516 8.2989800944 
-3.1309875565 2.7132801857 9.8262663239 -2.2326920059 -1.587313417 -0.19462205667 3.6696432117 -1.4976623808 7.6972358081 
4.2066152635 -6.5279013555 -5.5843215645 -7.1943436429 4.4330517619 4.9317297271 -0.69302699968 -2.8175589132 -2.6835922343 
2.5606430615 -6.55870637 4.74080261 5.6231764895 8.0526701821 4.8373120774 4.7102747567 -3.4592123982 3.2248196815 
-4.3976276143 1.9548094006 -5.0767849628 -3.060772025 -3.2339901334 2.5598975389 2.9342492571 -4.7616857842 -1.6564354387 
-5.5229657439 4.4329000196 4.2124693043 -2.0341084854 8.988266741 1.9170843865 5.7776299663 -1.0367948694 7.139453779 
5.1290916802 1.7600956981 -6.6195503262 -6.2568270779 1.9111329455 -7.0392974908 -1.7072902454 7.0158508953 5.6969910822 
-5.7888016684 -4.7995999904 -1.5386315504 -1.2130710298 7.1734665412 5.1958709915 -2.0292963612 1.6328250106 -6.3551331796 
5.6552335221 5.9893658326 -1.0991245841 1.6457664755 4.1357718369 -8.3700280586 9.9508735697 -6.4441091897 -3.6474500508 
-4.3382076995 2.0049175862 8.2430283303 1.2016942159 -8.6679309328 -4.3121455919 5.4269460828 -9.7781573291 4.1146743063 
-3.9082957038 -4.3651240033 2.990551499 -4.1087040834 -0.89826201385 -4.7824843501 3.4519707485 -0.70119701482 -3.5212156507 
2.9360596683 2.217674759 4.6851604798 0.43292443712 -1.4681519097 -0.86982530931 0.74279644392 -1.5549021063 -2.9568980259 
9.5562331657 5.1516988236 -6.4649033214 2.4288188795 4.8068051733 -7.0373730017 -7.2226141884 -4.9776620531 1.3282008608 
0.74991343004 -9.4963938035 1.1540896623 -8.9578243706 5.5259555183 -0.5855346824 -6.3502267411 2.5003907779 -8.881362694 
7.8235524303 9.6201479681 6.4966583112 0.79410253007 -7.1341187002 -7.0231240809 -9.7385116641 7.3884844556 6.8196759001 
-3.915244023 -5.4574462189 -5.6546666817 7.1002002586 -3.1413713457 4.4778489851 -4.1344143965 1.3056491476 9.0796914687 
-5.752927194 2.6876326363 -4.8239068103 2.5512931985 4.763185028 -2.3732190889 0.39397060425 7.7859495628 -3.3003931845 