# vtk DataFile Version 5.1
vtk output
ASCII
DATASET POLYDATA
POINTS 1244 float
-13.4181 -7.72051 -5.61943 4.35383 6.47937 -16.0344 -0.909441 -12.573 -2.15517 
5.83783 8.27829 -5.90754 -10.8185 0.100538 -0.757256 -7.8755 0.713654 1.99242 
-6.41386 -6.67478 4.92692 -0.0520396 -3.47601 2.51658 -9.59788 -8.67912 24.9302 
-22.323 -23.5005 2.05978 -24.1304 -1.72551 -4.74658 -21.0668 -21.0339 4.68239 
10.3647 10.7385 5.12681 -20.2753 -24.4842 11.8891 -14.7722 -6.8333 20.9228 
-22.3221 -24.1435 5.40398 -14.2195 -10.4635 -9.86945 -11.7132 17.7246 -16.3135 
-9.37546 -20.6754 -10.7365 -14.5234 -1.10851 -14.6946 15.7586 5.48471 15.546 
-18.7199 4.39552 -18.2987 15.635 1.148 15.3188 -13.0106 10.154 -13.339 
-9.62664 31.5012 -9.36333 -17.2546 -0.153708 -18.5494 -24.7508 13.7082 5.77902 
-20.5574 -3.15247 13.1008 -25.7279 -7.0074 -8.53726 -22.0645 -25.4567 10.7223 
-39.346 -4.42351 4.63686 -23.198 -25.4251 -2.15479 -27.1026 -11.5293 16.9941 
-18.4455 -4.49913 -4.91042 -22.5534 16.7398 20.5638 -24.7463 -0.222827 14.5731 
-27.5237 4.01264 -8.82686 -4.22242 8.2322 4.35643 -23.3273 10.0358 -19.4573 
-33.4324 5.32024 16.1745 -23.896 0.687779 -18.1451 -1.19579 -3.45678 0.426047 
-23.6017 -4.64362 -2.76795 -22.927 27.1058 4.67598 11.3912 -24.7121 0.0493445 
-3.37881 -20.8552 9.98876 -12.87 -19.2942 -13.2415 -5.85932 -32.3327 7.76822 
-30.1043 -28.778 6.74014 -5.55705 -32.7327 0.145361 -15.4663 -23.35 19.6967 
-4.5718 -21.0579 -4.33499 9.59099 -22.8737 23.052 13.5742 -3.72341 -25.1251 
-10.6163 8.07838 -25.6889 7.35222 3.80753 -6.33431 -18.364 10.1372 -24.1049 
16.1175 5.49995 -32.6451 -18.5517 1.32289 -24.0701 0.20808 -2.85472 1.16218 
-0.867035 -4.50685 -23.2837 8.6277 27.2505 -20.4174 4.88906 7.03775 25.1251 
-6.3496 -9.56568 12.4374 -14.1279 -11.371 -2.71596 6.83474 6.75686 -6.23456 
-20.3739 -21.338 4.35762 5.25564 5.45002 15.0799 -10.6269 -10.5491 7.02997 
-1.54674 -1.73365 -8.83162 -3.356 -1.03105 33.2261 1.02218 26.2599 0.986756 
-12.8228 7.88942 -12.6224 1.30981 3.84441 1.44699 -16.1994 6.37682 -17.3517 
-2.02983 33.1184 -1.70691 -13.3034 -7.97569 -13.5878 4.81611 5.38176 5.55119 
-6.69113 -10.5793 -6.64068 -0.547102 34.5101 -2.57145 11.3319 -18.896 -15.0406 
-17.8549 -1.38872 -9.69713 0.702581 -17.5004 -20.912 23.8901 3.5465 -7.07134 
5.35732 -28.001 -12.6211 -14.9055 1.32889 -6.32058 7.57419 -20.2376 -21.4065 
24.6632 0.755065 -13.5902 3.50502 -19.9936 -13.8877 4.48127 -22.1327 -3.20436 
-2.26963 -22.1725 21.4856 8.70638 -22.8129 -7.11931 12.0279 15.531 11.6256 
8.46758 -25.8024 -8.57456 12.5614 16.6599 12.9393 -0.151035 -21.1369 -6.20054 
-14.3263 -1.28793 -5.32915 11.1746 -26.1294 9.53406 5.10159 14.2221 -27.8263 
5.65807 -9.74749 -25.538 -4.21695 9.41392 -6.46318 6.60534 -6.32716 -23.8033 
5.31237 23.747 17.3431 2.43214 -7.54637 -24.2532 15.7741 10.7795 -6.61974 
-4.90892 -3.1681 -20.7367 27.5 5.27096 -20.48 17.3442 -8.49521 19.2598 
12.9906 -5.76257 -12.475 5.31039 10.953 3.52636 11.5549 -15.3349 -15.1815 
12.304 -15.6734 19.1724 -4.97156 -13.9736 -13.571 7.1403 10.954 3.42563 
-7.15211 -4.96211 -5.07751 33.1921 0.538009 -4.92317 1.84587 -12.1127 5.55699 
-18.4761 1.28253 1.2979 -17.5041 10.9893 -6.52523 -8.92415 -13.2416 4.93941 
-7.35711 12.1426 4.94626 0.332918 9.71493 23.6201 0.195441 11.3184 -4.14789 
-18.7049 -0.576362 19.2155 -15.8133 -0.819013 17.1908 1.54057 -6.94673 -14.8769 
-20.1421 10.5781 1.7722 -19.3899 12.9087 6.25613 3.35141 3.99132 -11.3433 
13.6809 14.4306 16.641 4.56401 6.25021 4.04653 -18.8014 -9.75766 -6.35116 
-4.06058 -11.8773 14.8874 0.120955 8.16896 8.71056 -19.6678 5.2975 17.1123 
0.0139101 4.0962 -7.48457 23.4608 5.2763 10.823 16.1814 8.043 10.442 
2.02247 -3.51665 21.5032 6.20102 22.6526 13.4689 -4.88337 -14.9471 15.6532 
-9.2175 -13.1302 7.47329 -4.18014 -12.133 -9.77571 -10.8942 1.13352 4.20878 
12.5324 3.9067 -3.1543 -9.34575 9.08579 18.9789 -3.11964 18.6407 5.07955 
-8.17931 -13.7768 -0.208845 -8.86905 -21.1345 -1.34776 1.61028 19.4817 -0.507908 
-15.0522 2.55015 15.2478 17.241 14.3996 -8.05375 -3.53169 17.6927 7.06476 
13.2291 11.7201 21.0204 -4.21678 4.54541 -13.4127 -17.2096 13.5797 -5.06082 
12.5254 6.26588 18.9245 -5.92321 10.0811 -11.1678 -15.9273 -10.7469 12.804 
-11.8785 -14.7404 -6.09481 -4.04927 -5.12213 15.0764 3.96359 -14.1172 3.43571 
-9.44882 -15.0265 12.6127 -10.2266 -12.8661 -3.43344 -14.5109 2.25464 14.924 
-16.1452 5.81235 3.39409 9.60244 9.96313 20.1853 -6.26909 17.9646 4.78497 
-1.85441 -7.40095 7.29606 3.2674 0.898863 -5.06096 -17.2858 3.44922 13.4966 
-19.0785 2.12076 -1.91867 -1.03473 -16.2152 -9.61325 -4.00699 -3.7416 -5.36686 
3.01256 7.35447 20.9212 0.617766 4.11141 -6.98608 9.32589 4.32256 21.129 
0.0188505 3.99354 -1.85033 -17.9736 9.26955 15.3559 2.11262 -8.591 13.9783 
-13.155 0.474333 9.93352 1.44793 11.0222 -7.75132 9.00362 6.96876 25.3721 
4.79963 21.7403 8.26176 -16.6982 2.997 20.8303 -13.4876 13.657 11.7099 
6.52884 -10.1372 10.7759 -18.5187 -4.89103 -3.31524 8.45307 5.78506 22.2398 
-7.39943 -3.31382 -0.504225 -10.9128 15.1828 5.72064 12.3901 -0.124898 15.5479 
-1.36615 -1.72578 -3.71298 7.92282 15.2959 -2.68295 10.8563 -4.81489 -3.87393 
-6.2832 13.556 7.27442 -1.70581 15.574 -14.278 4.45383 7.4178 20.6427 
15.0773 5.17445 -11.6614 -10.833 8.06718 4.42767 7.36879 7.21622 4.51163 
11.4445 5.61379 -14.5178 -1.4996 25.3666 -7.21338 -15.6427 -4.29141 16.3327 
-0.381075 -3.50363 -8.71031 15.2164 5.71917 18.8323 -5.06967 22.6651 -5.63232 
-17.3038 4.66774 -2.83037 -20.5954 15.0822 15.5107 0.888445 9.69857 -16.0177 
13.2834 5.56246 0.388521 -1.31067 -6.24088 -3.68666 13.3568 -2.73611 -4.40505 
-12.5408 11.332 -3.67748 -1.0406 -1.74951 12.7852 8.34082 14.4951 -14.1881 
-0.912214 7.39049 5.14825 -6.88841 1.3017 -4.78632 17.2683 7.57502 5.02793 
2.44049 -0.863299 13.8737 -20.4051 -0.717895 0.832245 16.9231 10.1786 -10.4126 
-6.07219 18.1375 5.28339 5.11942 15.993 -5.76398 -21.3384 8.41501 -1.89681 
7.39029 19.3658 13.4577 -10.0623 3.42218 -6.95298 9.57695 15.1017 16.1874 
-6.52397 4.78969 12.1641 -18.909 2.42434 -8.97119 6.76287 -6.8502 5.04603 
4.87572 0.498394 -16.3423 -2.94548 17.2158 -7.28496 -5.31158 -3.77991 11.3021 
-1.47266 22.0091 1.97891 -9.14213 -0.384283 -5.68976 -4.82608 26.2864 9.12493 
-10.6717 -9.28191 18.6412 8.7668 4.32412 25.9226 3.22207 24.3567 1.22283 
-15.3898 18.7838 4.47796 12.5233 -1.56827 5.07014 3.30074 -5.38732 15.9846 
-1.378 -2.21761 -1.37771 -11.0691 9.68701 20.7289 1.20025 -7.71451 13.099 
-4.0028 15.2312 -10.3343 -9.76122 -1.24444 17.3574 -12.7915 -7.95397 -8.38775 
10.8317 17.1556 7.38106 20.3715 -5.38718 -1.79951 11.8963 7.98637 0.714103 
-10.0693 -1.43922 8.82152 11.229 -4.70854 -5.23606 6.56285 16.7728 7.31909 
-2.96581 -12.6422 -7.84088 -10.4288 5.2645 11.0306 -28.8952 -3.49236 2.06656 
7.1948 2.72514 -11.4258 -8.19499 12.8827 -1.11192 -1.90538 7.56438 18.4912 
11.3656 3.53864 -8.4873 4.48046 -7.41095 14.0369 -7.18881 8.69776 1.63258 
4.1639 -6.16935 -11.6056 19.5756 12.2016 3.48546 -0.985942 16.5336 18.2242 
-1.41258 21.6067 0.951699 -13.631 2.12837 -0.18647 9.5594 5.32093 -5.61796 
-1.87082 -9.57846 20.1918 22.2441 6.14015 9.01723 -10.4775 6.51044 -2.28051 
1.6381 -5.71695 17.0528 -27.6896 -1.6676 8.54294 11.4798 3.50887 15.6561 
2.08658 4.6852 -5.82202 -9.83555 8.1652 15.9179 10.5625 -9.89194 14.5338 
5.66307 0.0344284 19.9752 -0.452873 -3.4355 -4.30135 0.539892 3.36335 29.1984 
13.6743 -2.67404 17.6573 0.131256 4.9598 -2.19672 5.31866 15.299 18.2556 
-14.7331 8.1176 10.2756 -6.8522 10.067 3.24893 9.34096 0.513008 17.6351 
9.16144 10.9008 -8.9422 8.48151 -10.182 0.0247062 7.9932 24.0093 7.53279 
-15.3369 2.26872 15.8921 -1.36531 -0.206567 -10.1481 14.5348 -9.00585 11.7198 
-17.7692 5.83128 14.7156 14.2105 -1.33016 -0.40409 -7.3629 5.15054 24.5665 
-0.0292454 -11.215 13.5739 2.19345 11.8266 -15.455 -6.03188 -9.6517 -9.46266 
15.6694 10.325 3.10059 -15.4288 1.52339 1.70775 4.96903 -1.8669 -5.18036 
-0.660107 -16.618 8.99144 12.2604 -16.982 4.47871 16.2992 -10.9433 9.24132 
1.21302 -8.61432 -9.45829 -2.39204 -3.06049 -12.9918 6.7327 9.64837 3.90537 
10.6715 16.3284 19.9668 12.0952 7.62344 -7.89306 -16.1121 7.78119 14.1072 
4.6097 1.21145 9.60306 11.626 -8.81984 -10.4337 -0.22136 1.21594 9.76989 
-11.1736 9.06196 4.4355 11.8514 -9.76116 -8.88444 23.2013 12.6909 16.6589 
6.36627 -6.81912 4.68599 -1.85049 0.421124 15.6558 11.33 -3.89676 -6.32306 
8.56065 2.50507 0.104235 -7.60328 1.85628 17.0912 10.6822 -0.541799 -10.0748 
32.0478 2.94284 8.71046 27.76 6.4555 6.62523 17.4998 -4.3015 18.7193 
11.2048 23.5061 12.7139 15.3297 0.364583 20.7141 4.6687 -20.254 9.51245 
6.4533 -9.1549 -9.12919 2.40797 0.377801 1.50975 10.3685 -3.11838 -11.0006 
7.23726 -2.55624 -9.695 2.11767 -7.08984 -1.89835 3.73814 -19.4144 1.31609 
7.38065 -3.0341 -12.8533 11.8194 17.1818 -3.32846 7.38718 -11.8925 -2.34328 
16.6006 -0.0303578 -14.2439 1.1311 16.3966 -2.53958 19.3337 8.0256 22.0858 
7.20001 2.72472 -12.5228 10.9261 2.28416 -12.7318 -2.94468 10.2384 13.9482 
6.16984 15.8005 -9.77249 -11.5469 -3.00458 18.6349 -1.89689 -11.8172 2.23786 
-0.493616 16.3966 14.377 6.34007 10.656 16.9447 0.554185 -7.23673 9.85711 
-13.3209 -5.85226 15.8796 -3.00805 0.614016 20.8298 -5.9487 4.676 4.31078 
19.8708 10.5933 20.7898 7.87191 16.1525 13.527 23.0275 -8.16893 12.9939 
7.42346 -21.608 10.5985 0.362055 0.575497 -3.97657 -3.91754 0.496503 8.53786 
-9.48542 0.563224 -2.89778 20.3004 -7.26952 -0.953388 14.6061 4.01551 23.944 
10.1492 3.50096 -8.41568 18.6165 3.10479 21.1138 9.13094 3.0064 -2.70474 
-8.07995 4.69384 18.516 11.7837 -7.84293 19.9967 -1.79498 -0.558047 8.94407 
10.3422 21.777 -2.6197 15.7756 8.88732 22.4488 3.30691 2.4545 1.48919 
-5.72602 9.86798 20.7244 5.32213 16.1591 16.9251 16.9389 -8.59605 14.0404 
-5.41441 -3.84227 -8.13456 19.9656 13.7388 24.3035 -9.93088 9.41885 5.95849 
-1.41121 -13.3215 12.6193 3.92443 19.6594 16.4364 18.7391 -5.27653 -5.49644 
5.46147 -16.0586 3.06993 3.26941 17.7987 3.01916 25.9477 13.1957 1.22457 
7.19796 17.2913 -10.1794 14.1354 9.21887 21.8124 24.088 3.4876 -2.7743 
[...]
CELL_DATA 2484
SCALARS scalars double
LOOKUP_TABLE default
-3.4686319372 -7.4125508321 -9.2458209945 -4.6506649661 4.7118347322 9.0077575309 2.4077081332 -1.0610963537 0.87630134146 
-6.0673942099 -1.1613790708 -2.6687966661 2.7274456707 8.5203247688 -3.0475536796 -1.5245770178 -4.2593774835 5.7959807039 
2.6263861102 -8.8575932147 -0.4986976039 2.852606803 -0.98527252832 -9.2677254193 -7.2111273324 9.914518414 7.5235341976 
-9.4297382056 9.9885232667 9.7882575154 9.7271116347 -9.7599135765 -9.9916969551 9.7343740773 -9.9955298073 9.9956833709 
4.4710493981 6.8886193246 -9.080182348 7.2114458742 -6.9463437441 9.6312333882 4.4990600816 -7.0874360712 -0.039266469718 
3.0333473882 9.384988951 -4.5529309086 -4.6740819024 9.8243761053 -5.9987077058 -7.8890595452 8.2637694724 -1.5892047457 
2.2747092137 -4.3661057321 -3.2938469865 5.7030991856 -0.24542638954 -6.2434698339 2.9639711406 7.3921992907 -6.1956790779 
9.1885894361 6.7262890879 -5.542266042 -8.0189238601 -6.5403699592 -3.5395898372 -8.6160306589 5.9391293218 -3.8494004772 
9.9862315998 -4.1617441595 3.0761548307 -6.8462304862 -9.6338964499 8.2638235868 -5.7970676242 8.2079908517 0.7215870313 
-0.34673968999 -8.0571744358 9.5746096076 -6.0263452642 4.0215927118 -4.6239925717 -9.8451820373 3.4246686588 -9.8556672593 
9.9018373678 -7.7365215453 -9.6043520768 5.2922835605 7.7405409783 8.2309441075 4.1116047217 -9.5814783943 9.9464502345 
6.1250382486 -3.9831774369 1.2259677321 -5.0608273058 9.8342767273 9.8809731351 -9.8467183866 -3.2395967258 -9.891618236 
6.7382364042 -9.5137042784 -9.1781250929 9.4399798845 1.4423945852 -0.9561812634 7.3974940866 -4.6929242563 -9.7266308443 
0.066665640165 4.0433392198 5.3930813632 7.5301359454 9.890767048 9.9607155154 -9.7446065192 3.5127013732 7.6023621002 
0.56012786089 -8.238289814 4.6620886284 -3.1238521921 -5.0144223665 6.5857485219 0.16544064845 8.5642453149 2.1971143474 
-8.5998672578 3.4508407238 3.9786613176 -3.4282657396 -4.3093765553 -0.23730927935 -7.9709434587 6.7220061061 -0.41290068356 
3.3848977145 5.6117406081 -0.42243672103 4.6809693595 2.5046636115 -8.1691787333 4.5629509703 -1.473589099 0.48053301057 
-8.9678452675 9.0684839413 3.1542772585 2.0660347883 9.315524478 6.6176974883 -2.7111863796 -0.48259554202 -0.46141318336 
-9.3698742468 -8.9756324524 -8.2676366907 -1.3107125119 -5.8330318993 -0.76835048052 1.2704280395 4.4337456128 -1.7514621987 
-3.9359382989 9.0151156904 -1.199142862 -0.092153252221 -7.9192439246 9.8834187458 -1.0831361453 7.957647104 -1.1179999813 
-1.6810402935 -9.8449475565 -2.5764085018 -5.7740256179 -8.4806048582 6.1618501154 -9.5911174315 -7.9339219652 -2.9049113887 
9.4934100846 4.8867595526 -0.098484040793 -5.7195065912 -2.2341006177 7.7674627119 -7.3025784574 9.9512756184 -9.9028101536 
-3.3432587142 -0.51191280986 -3.2302022153 0.099334565915 2.9525625526 3.3502306253 7.6366907793 -2.9954467494 4.1296468985 
6.3759264104 -1.0615072882 2.9348653112 -3.6929175767 -0.39098771383 -7.212665978 4.2283754266 6.9996240755 5.1634910013 
6.1024611449 5.387920337 2.1702808427 -4.9003789563 9.1261332202 1.2836741473 6.8039852536 -8.7651192995 -0.15115139672 
5.6635569113 -9.1700970246 -6.5484506076 -5.447850473 -9.6570463084 -9.8945643782 4.391681094 6.0178840148 -1.4704956758 
0.19827428154 8.4557376362 8.4304051144 -7.3644772727 -2.1592363103 8.757936571 5.0642169966 -4.2508677103 -3.3770679473 
2.4825859307 -0.10944261059 3.4198574171 -2.7657952476 -8.660044373 -3.7139389239 6.1217291279 -4.8923093705 -7.5453188182 
5.792308989 5.1062998786 7.2949302145 0.57668145637 2.0467741953 6.9536183659 -7.2233635034 -9.1137822944 -6.4642117522 
7.2374899968 2.2344100059 -1.0894317898 -2.1548106394 1.3085926415 7.0151337938 0.36065437254 6.1310467132 -9.7830316111 
0.46349411528 7.0642591995 5.5648594327 -7.5365930698 -7.5101985405 9.2144972857 -2.0986269153 0.63183788883 -0.70928914025 
-3.1227363832 -8.5621857761 -4.2050161927 -3.5963233086 -9.1210364576 -8.2028077689 6.8459045149 7.5870550994 5.2703491511 
-5.3938413916 -5.9607816577 9.2142728747 1.95552037 -7.5751026615 -8.2584801395 3.9267545797 6.1736076088 -3.7810573056 
2.1229947388 0.054235260484 -6.7244442873 9.1824443557 -1.8303469533 -7.3783239213 -0.78288068309 -0.39341334891 0.68463666978 
3.9772338411 -5.605896687 -8.6111398115 8.3093675865 6.8461023515 5.1406893814 -7.3849867781 -9.9832685044 5.8989645248 
-7.9305095854 8.7231316421 -7.339682067 7.5754689763 6.7617026845 5.7885110373 -8.7771653745 7.9767293889 -9.7247550245 
-9.5988757346 9.3390569253 9.4218793838 -8.8839276324 -4.381470756 -8.9625076156 8.3925349263 9.7093112562 7.9313555516 
9.7738373365 -9.9439510568 -9.9112802187 3.26439149 -5.8922755602 1.0377793974 -8.9921413619 4.4626012835 1.0717747895 
5.0570592529 2.1627206264 -5.116447804 -7.4890903851 4.3416823726 -3.7113603069 8.2110538014 -8.9686094264 5.2271360944 
-3.5403888787 -3.9281476115 -9.4146957068 -4.5295185264 9.6507188062 9.313185264 -9.2788348194 -6.4448629372 2.1455432657 
5.8169470042 -1.9420484623 -7.6260798193 3.070064569 3.4774677009 5.9377901131 7.1173370244 -0.47013853547 -9.4136926909 
2.4066411268 -3.0411088944 -9.3818634995 -7.099640189 3.4161407069 -8.7296699477 -9.9789106156 -9.2230527811 9.7438475721 
8.9063105395 9.5358327901 9.4873777346 -9.0515016625 7.0261283882 -2.6821266355 -3.4337517231 -1.2974603788 2.1510694973 
6.3507044087 0.8468381167 -3.4128278591 -9.8888760769 0.05069690782 7.7511010607 1.8928121245 5.1574636008 5.2180465774 
-1.3283231686 -6.44295114 -8.2207965093 -4.9644206366 8.8040665128 7.9265877442 3.6121266845 -4.5065199332 -4.5072802518 
3.0846675054 3.7311332576 -4.3304974945 -9.2119985997 2.3965559501 5.0789233888 -1.2802001234 3.1399345185 -5.781498554 
-0.75198096912 7.4650047857 -5.0039279932 7.0023710618 -0.68871669089 0.5586971409 -3.4258831682 -1.6079250808 -0.70967036584 
9.9617965494 1.4323647662 -0.57661943639 -6.1350407485 4.6754664561 -0.37914607821 -6.0271678531 -0.080118115163 0.065490637521 
-9.6002495568 -4.3828728079 4.6256685098 -0.20729691232 3.9855714454 7.4643907977 7.7107749179 -9.953810872 -7.8778212823 
9.9234415207 -9.9862601499 -9.8839394742 -7.821110912 9.97645906 9.9825371454 -3.3710862522 3.9815625215 -4.1572267101 
-0.28507419493 -6.0635583453 4.7836465525 -5.6598617751 9.4206625191 -9.9765133973 -8.5372284961 9.4135149782 -1.0972738387 
-3.6992740802 -8.6843976372 3.9394088201 4.1944375463 -7.8725032152 2.8420488347 -3.0941132087 -4.536915684 4.1975787175 
-1.119710078 -4.4219560595 6.01302034 -6.9367721533 1.2341000806 1.0645705941 -8.0527676876 -0.94711873884 1.9272003574 
-8.5782664512 1.4683460135 -6.9044439409 9.3399227954 4.595904714 3.1594477522 2.2186030125 -0.12019594893 5.6403708217 
0.29042059284 2.2760458494 7.5221116251 5.4607687056 9.7979980996 -9.8826777177 -6.468873463 2.7280087252 0.54189886131 
0.066893061056 7.1892092941 -8.962477699 4.573277013 -1.6263802632 0.022532590708 9.4949566534 -0.87375795913 2.6205251255 
-9.3280890782 5.7369153909 8.9935574092 -5.7117747414 -4.5403715016 9.7405773303 -4.766220021 -9.9073694902 9.5656280665 
-8.478184812 0.37077327318 -1.9720536545 6.9808224156 9.895187282 -9.9097179545 9.7819626088 4.7851486438 -9.7064542347 
-1.4873707395 -3.538966601 9.9430816465 -2.9122170967 3.5847183482 -9.5810370501 0.58882319409 5.5963454134 -4.8009594581 
5.6202542777 -8.6182240851 5.2680533063 -0.57134006487 -9.7952529604 0.9364919356 4.6805517843 1.8905650307 -1.2143904231 
-8.5974300594 3.6706370368 2.6489403037 9.3620829706 -5.8260576223 2.8189707357 1.5656618699 -7.8950166973 3.5448150493 
4.22470964 0.30603741303 2.5549211689 8.1070016234 -6.6852553234 -9.2457543759 8.1747201183 -9.3996958608 9.8789607659 
-4.4289188512 -8.17467131 1.3123280292 -4.869375325 6.4122370434 1.4484420792 -4.9325618852 2.9071891801 2.2390176122 
1.291849964 5.5514489432 -7.8810791778 -0.85947266369 8.596271648 8.9224061408 1.7939326533 -0.091379679047 -7.116731458 
-9.5908281023 -6.5977592888 -1.1337385491 -2.7395340503 7.9109850902 1.7962422906 1.5561751685 2.0375613133 1.3802850317 
-2.7306656305 2.8911663773 -8.106415915 1.6202007026 -0.89678700684 -8.4028396629 -8.8776039229 -4.1104956992 2.0607091527 
2.0206241302 8.7032253386 5.5509602075 -0.22653809732 -0.44508131127 -5.9209979549 1.162906015 5.0131478624 -5.3396489944 
0.1085483955 6.6505645155 -8.3786023255 9.17894267 8.6324002493 6.5372810301 -2.841743989 -1.713203598 -4.9089982262 
3.1740107549 -1.3446983893 6.4593300806 1.2668532635 -3.3726027845 -3.5328542369 -8.8953075755 3.4510847942 -3.045170804 
-5.812151337 1.3413012406 -3.7625857949 4.3385437235 -1.3104530167 8.4716845206 -4.4260430192 -7.0442452837 -7.3823975977 
-5.9474578721 -8.1837668749 -3.1485442212 7.2734756622 4.3639960384 -2.8533830942 5.4590786482 -7.6957721988 4.6260532761 
1.2275966566 7.9807821339 0.039352582065 7.8641435535 -3.5141638951 8.5355912444 -2.500631646 -1.5378442334 -4.968381081 
8.0516808904 8.787473371 -6.5647859646 -8.1936731204 8.9044377453 9.8294295081 1.7950784076 -9.6790114377 -0.066330133235 
-6.9053053389 2.3213713379 -3.3719450965 -9.8314128624 4.5841444708 8.6236843738 -8.1531947245 8.8628021034 -2.8929247231 
-0.38877706218 -0.77783961309 -5.7423108243 8.9871060308 7.4435235575 -7.882465307 7.892516029 9.3486923042 3.4294672168 
-9.5126676549 -4.5906256284 -5.4029121653 6.4723265949 -0.58843955775 -4.6306454005 -6.0367976694 -2.4201035777 5.129173865 
4.0008910222 1.9462721436 -4.8868915839 -2.9911602406 0.5672303996 8.7008906099 7.9023992514 9.9951083718 -6.3112791491 
0.18315492872 -1.6493833156 -1.4228852146 -2.9818788618 9.6778192548 -5.8098653639 3.6500108221 -6.7242416008 -8.141044548 
-5.1909278042 5.5680555375 -8.4143637429 -7.9111243647 9.9746506769 9.1565464757 -2.9502812893 -4.1230906736 7.9719590217 
0.96530900721 4.4253065679 0.019408164408 -6.8814646288 3.6734146261 -2.471072265 -3.7430770833 4.4706200286 0.89946600847 
-1.999979335 4.4359252432 -1.8568562936 -7.5604343792 -3.6692011238 -0.57533258018 -6.2212305383 0.66662875821 9.3337927512 
-3.9214734866 1.201787199 -6.175957566 6.6296292368 -1.0128687558 -0.72028331467 -7.2820643777 -7.6371556451 9.7924247767 
3.0774834856 -9.0231340322 7.745462541 -1.2782947244 -8.1249034685 1.628869382 -0.72095289868 -9.9992174823 -5.7845588916 
0.87645987586 3.5538609242 8.0132956357 -1.7772024655 4.6651072949 -7.2091518944 6.7309647688 0.74265827978 -3.1328093664 
9.2409045881 -6.2899456245 3.8603871624 8.5986710198 5.2553003518 -1.7631887146 -6.0623469328 -1.2286541138 -5.2755708432 
2.6950740331 2.8040452718 7.5865393474 8.9748749254 -6.1920104737 -0.45580158747 -0.33017983747 7.570527575 5.829014239 
-3.6180113508 -5.9715948734 -9.2521398663 1.1127295934 0.28932485749 5.6366290315 -8.2813913614 3.5532237431 9.2574462593 
-3.5557419011 2.9592484972 9.7246544733 6.456013837 -4.8722255148 8.4862277585 9.9089103269 9.320334086 -9.5630530594 
-8.6657562913 -9.4311251272 -6.0048065852 8.8008766571 6.5305640452 -0.18958930758 3.7462579617 -0.76358637023 1.1056765398 
-9.7260495592 3.3871813888 -2.1422282065 9.647358584 8.6289920073 -6.1743016812 -9.6330977624 -0.92449987292 -9.217616795 
-3.6151553621 3.9978599293 8.3339445886 8.2935704098 -8.487787212 -8.224040872 -5.1102721255 1.0953858352 5.1614693648 
-0.68943848007 -4.6922389482 3.352246645 8.8295652471 -1.4591022101 -6.005794066 1.7717432111 -7.8246407232 6.8463658689 
3.8328180582 -5.4159200578 5.2829431152 -5.5841170864 -3.859259584 -4.9325319729 1.1436136542 -0.45334433193 -3.2681726728 
4.6652359427 5.2570120621 -0.27515678606 1.2687596692 -7.7870687041 8.6854713506 -5.3202501154 -1.4071760542 -1.9683554423 
6.2889436121 -2.1439414548 -7.1380547809 -3.8585092571 3.4188414815 -8.9285015791 5.1944794834 -4.8820466904 -2.6254920408 
5.5584838745 -2.9706525454 -0.91318383339 -3.3103939399 0.79480701275 3.0744313852 2.249502275 2.2951382419 -2.6747721215 
7.4032001573 3.5259769991 4.5439427889 -6.9023343962 7.4569585335 -4.1859882764 -4.0087411369 -3.8740464065 2.3470406368 
5.5843951705 -3.0131354833 1.2774084281 6.5744249757 3.8317172867 -3.9454856246 -0.97032818127 -3.5943783909 7.4572908486 
3.8078496493 -4.3521128751 7.4392902974 7.8052975537 -1.1278026406 4.1369245393 5.6619675603 6.3429676182 -8.8290640366 
5.8971123171 8.5455664761 -4.1986357663 -5.452672792 7.5812169094 -8.0572217526 0.45118180085 -6.7484504468 0.72963573246 
-4.4716649556 4.2048765193 4.3371494658 -1.8021730229 2.7639162165 1.3187800698 -8.0624044688 -1.5548397858 3.7199371082 
2.9368428749 0.28985064107 0.4335316322 -5.5322542091 -7.0328351676 0.38681927969 2.9175591525 0.4750897324 -1.9033810153 
-5.4068888649 5.4055424159 -0.002171062753 2.7796579945 -0.26470271733 -7.1045350828 -0.0093833284854 5.6684434751 -4.0183008267 
2.9907697142 -3.5602791192 4.815896303 1.5979606671 5.1647945632 0.1105776988 0.29758690386 7.6373730156 -0.43807593177 
1.875298213 -1.0794743148 -0.20879263138 2.4171442466 4.0073995328 0.86458907605 7.8439206373 -5.1278928695 -5.0361505235 
8.4757231555 2.2190131817 -5.9545706556 -8.6704167429 0.86940083646 -2.8079964843 5.6212114723 -3.1971306817 -0.44511639046 
-9.1054406503 6.0617359432 -0.9331068931 -8.5343978335 -1.6381902105 5.4380480389 -1.3693078975 -7.6276995701 -3.5903956303 
5.5022973559 -6.4927798985 8.0282724478 -8.7817138442 8.5834070138 9.7446366968 1.3300092533 2.9472548868 5.2967237489 
6.3843775177 -7.3591027746 1.0400386334 -2.0921584188 7.5344169344 1.1155571116 -7.4461662155 -0.51787040168 0.99315324801 
-0.53442778623 1.1321421858 -0.11657559898 -7.4582873857 -0.25909144121 -4.1726744677 1.0264697318 3.2742741649 -3.3733783921 
-6.096370615 1.4378179338 -6.737450289 8.6066411045 -4.8020903978 1.2823553086 0.12899890141 -0.74917335109 0.64975397251 
-3.0520731099 -8.0570039532 8.2060641484 -2.6095163823 -1.8233976141 3.2220569806 0.29589302258 4.6581658866 -1.8014301967 
-6.0340493265 6.6354076431 -0.46045375286 -6.0850004938 -0.746519208 -1.3377913174 2.8763831672 -1.4071483986 6.0113760267 
-1.5925464175 3.0098224816 1.9682057309 0.031264827717 -3.8948012349 -8.925420349 -7.0044586443 -7.395839711 6.7606234854 
-0.76955281815 -5.6042763431 1.6893693842 -3.4849991211 9.237437514 -3.2234057701 5.6353790362 -6.2482078989 -2.1988596196 
1.6682206031 9.1450136373 -1.0351020242 5.5981504245 -7.1038503711 -0.4646593322 -4.3895531411 -1.9443049489 -2.8523571243 
3.9286677712 2.0237590165 0.042958221556 -5.4195617534 5.9278301907 -1.2503090064 1.8067462883 5.4760748533 -0.82408758247 
0.049320763826 -5.0470049468 0.59874128525 4.5014134672 1.4171290408 -8.5275215048 -9.5508765897 -0.62102286691 8.1566296061 
-4.9440200336 0.59250508213 -4.8285014604 -0.21718765013 7.8944680921 4.1704462811 -2.0372960813 -3.9413100318 2.2488310877 
-8.3576375866 9.4978879385 -4.0044599198 -6.382804369 0.53480200338 -0.089381895347 -3.2486621004 -6.829800108 2.3775664069 
4.5214670007 -2.2577696832 5.5022377192 7.0984626213 8.5465410486 2.3445303315 -2.0895577974 -3.9995499479 -5.310853755 
7.2797226004 6.2647382014 7.5072904124 2.5307991584 -2.5802200421 -3.3178842378 -6.5615317403 8.2732077257 1.6898873819 
-4.7123193134 -3.3696097501 -9.7951694997 4.5938656842 4.9602926125 -5.9266797604 3.1645844407 0.6910912162 4.8517620013 
1.0941758107 -2.2624943408 -2.7998089198 -5.8554810287 4.9073022644 0.42325061451 -2.5727217176 -1.1673248032 9.9095710768 
5.0763727445 -5.2778960052 -1.5746164068 -4.3494055273 5.6261419383 1.4886718032 3.8952827391 -0.47264599834 -4.4309558176 
-7.3845915733 5.1107588755 3.0501611812 -0.10466949031 -3.537147515 2.2252388549 -6.5125938782 3.3193616564 -0.36072858626 
-2.5278774985 -3.839121525 6.8469639476 7.0735782293 -2.9921629307 8.1063177454 -6.0323616463 1.6509834031 5.9273554063 
3.2977781841 8.7445483471 -4.3387339028 -4.8325173963 -9.504443742 -3.0475999006 4.2567595294 0.59153826316 -6.8127388593 
-4.5243950925 9.8863986153 -3.3975872484 -0.88909679578 8.0679281191 -6.941349674 -2.3574982659 3.7093604146 -1.2584947922 
5.536669511 0.24950133856 5.1332647701 4.906128899 -7.0885029998 6.7624535668 2.3167359662 2.8858559797 -4.1288589427 
-6.9380319487 2.9260393312 0.1393047456 -2.8362936368 -6.9522541401 -4.6571747253 -5.2086394971 6.7513969434 4.4950903134 
1.2782871029 1.6800436731 -9.9615204434 -3.607052771 0.00887846109 -0.83833252715 5.9171221214 -2.2220374776 0.61425922104 
-8.3469941801 8.0602464641 -9.0109047901 -2.6152902811 -2.081301541 9.2186262837 7.1063979012 8.8091612382 -1.7045033927 
-9.1698604319 1.6199738511 -5.1265719211 -8.1761559291 4.3866435647 -1.7641985463 -5.3167748872 0.46471353124 3.7115319881 
4.2086755695 2.6720843563 -0.26387331756 -4.1342703314 2.3652195811 0.1822844101 -6.1173844082 1.6292373356 -9.7095181355 
0.30151264427 2.5959944099 6.846671947 1.9617908757 -0.91290584352 8.7606756266 1.2351517059 -8.5160889406 1.5505221118 
8.1339509433 0.38725245651 2.9277963478 1.2162854805 0.015717575651 -1.4667693668 -1.1913307462 0.040180228399 -0.61813631425 
-1.7730765512 0.071227826185 2.6214519603 -1.6843244726 4.8323540357 4.452295921 -4.1269267382 1.4880023806 -4.878348258 
8.9902115999 8.7294888889 -9.2760841649 4.7150882924 -8.7463222521 -2.5877774232 3.5315654369 -7.2019105699 1.7059828041 
4.8572129045 -1.1705031339 -7.1945906782 4.8575572258 -3.8699422392 6.155066948 -0.30750210871 -9.7864628174 -5.3457869477 
3.8792265883 9.9268471004 -3.8862582762 1.10474445 -1.8695049605 8.086476046 6.4191682076 1.6321475518 -7.2899788884 
3.5008767226 0.85930472078 0.26743650774 1.0016239776 0.24869272382 -1.1722295329 -1.7797267667 -2.1629411429 2.1636653023 
-5.9909851205 1.4154164452 0.11096633854 -8.8442160659 7.5742093557 0.54149922851 -5.8208797442 -0.65997930298 6.5764744433 
-7.6909689751 2.7636929802 -3.7733171018 7.4041635854 0.98556398844 5.5308125214 -7.1817815293 5.5460497563 1.0029816657 
6.0744329833 -4.7394013897 0.92368050737 -0.98106735313 -8.1943625941 -6.9934401595 5.4648596045 1.7856305226 1.904314604 
-3.5709383869 5.598275607 7.5373499591 0.20305396991 7.6771394093 -9.5259251579 -3.6533209316 -8.1724633386 8.2261922344 
-2.8980466368 2.804064427 9.8510505364 -2.3088004622 -1.5603130481 0.021717461534 3.8344556577 -1.2778378311 7.6202041604 
4.0703432128 -6.4545354008 -5.5826454297 -7.1987013515 4.3825446917 4.9448478162 -0.67072745569 -2.8115202111 -2.7070357071 
2.5905175039 -6.591503826 4.7956821486 5.6401475719 8.0786131088 4.819093266 4.7405626154 -3.610628125 3.2778254858 
-4.3261553172 1.8011421803 -5.092766922 -3.1087850555 -3.15624236 2.75006669 2.832783598 -4.7406242523 -1.6716639959 
-5.6101851535 4.4131531934 4.2813000909 -1.9040428381 8.9909548994 1.9422619539 5.7993693102 -1.0106522683 7.2727504877 
5.1710746567 1.5577624823 -6.4576915644 -6.1170428195 1.8470236637 -7.018244314 -1.7459453605 7.0189833319 5.7112582946 
-5.8229173806 -4.8595562802 -1.4676202617 -1.6205481249 7.1915513108 5.3491830952 -1.4810482775 1.273336677 -6.42413493 
5.9900265658 6.0580034 -0.58362618379 1.376003546 3.5377958114 -8.2929742829 9.9337406882 -6.4589019505 -3.7887776597 
-4.3872992013 1.453192596 8.2393885739 1.0211706836 -8.6762437209 -4.6008455115 5.5639530941 -9.8014828409 4.2451875644 
-3.7112045105 -4.3735121327 2.9097354485 -4.0763829911 -0.86746056563 -5.0366561389 3.5054770052 -0.636757003 -3.60418549 
2.9760821627 2.1657027659 4.6676101849 0.54250505471 -1.3940995858 -0.9443714697 0.37554279456 -1.5680806124 -2.9993119787 
9.5495873464 5.1070976473 -6.514404671 2.5055463154 4.8490271393 -7.0752152122 -7.0907489225 -4.8954599869 1.36228535 
0.53162201384 -9.4739076186 1.0862401526 -8.9931379325 5.4572227567 -0.5565386035 -6.4068700131 2.6048987544 -8.7514778983 
7.8468202455 9.6248633939 6.5625774682 0.81914707645 -7.2495242684 -6.9377046727 -9.7395481501 7.3782148906 6.7961927446 
-4.1722082498 -5.411467967 -5.5421293507 7.0234365581 -2.9388183095 4.4239123959 -4.1649996775 1.3014401565 9.1101382886 
-5.7653647961 2.664253458 -4.7936933279 2.5270642116 4.9051331887 -2.0811424557 0.32527914096 7.8688373557 -3.420712816 