# vtk DataFile Version 5.1
vtk output
ASCII
DATASET POLYDATA
POINTS 1244 float
-13.9845 -8.17805 -5.88589 3.74046 6.29489 -17.4431 -1.01054 -13.4289 -2.77131 
6.30933 8.47852 -6.41888 -11.0882 -0.172987 -0.919648 -8.89876 1.08074 2.1082 
-6.9143 -7.28908 5.48888 0.65074 -2.88965 2.99814 -9.57827 -9.02564 24.437 
-23.0595 -23.5126 2.65031 -24.5763 -2.21824 -4.60213 -21.6727 -21.2621 4.26778 
10.3842 11.361 5.11036 -20.0875 -24.3251 12.0123 -14.6343 -6.36933 21.085 
-23.13 -25.2817 5.26752 -14.1809 -11.001 -10.5026 -12.5008 18.6558 -16.028 
-9.18661 -20.2766 -10.4407 -15.2205 -1.45291 -14.9433 17.2806 5.25554 16.0064 
-19.9052 4.22712 -19.7679 16.8466 0.406696 16.6303 -14.0863 9.80003 -14.5264 
-9.4784 32.8323 -8.99617 -17.7169 -0.465603 -19.2586 -25.665 14.4897 6.39603 
-21.509 -3.75887 13.5563 -26.2219 -7.1553 -9.27303 -22.2302 -26.1936 11.2057 
-40.3439 -4.35232 4.62504 -23.4382 -25.6214 -2.69497 -27.6747 -11.608 17.1488 
-19.2292 -5.20208 -5.99841 -23.2367 16.6791 21.0304 -25.8973 -0.310147 14.9364 
-28.5569 3.91345 -10.3062 -4.27212 8.81065 4.76549 -23.5551 10.3727 -20.746 
-33.8563 5.39509 16.4207 -24.8334 0.431504 -19.9971 -0.106066 -4.68289 0.733228 
-24.6536 -5.21621 -3.49192 -23.6799 27.9122 4.71761 10.8748 -25.3237 0.170774 
-4.1812 -22.3219 10.6065 -13.2127 -19.3027 -14.6213 -5.31718 -32.7778 8.16801 
-31.4562 -29.5056 6.97009 -5.16637 -32.7985 -0.0573885 -15.8434 -24.0622 20.4685 
-4.93628 -21.4978 -4.86318 9.69204 -24.1182 23.4425 13.8586 -4.51494 -26.6939 
-11.4587 8.13356 -26.0149 7.76274 4.17685 -6.99765 -19.2353 10.5809 -25.1173 
17.0345 5.45825 -33.8471 -19.2908 0.647729 -25.2234 -0.409649 -2.41333 0.74597 
-0.490082 -5.62154 -24.5659 8.98432 28.1413 -20.7263 5.03451 7.15857 25.6879 
-6.76018 -10.1386 13.0495 -15.2034 -11.8289 -3.54419 7.20943 7.18401 -7.25533 
-21.2609 -21.6126 4.48632 5.95683 6.04009 16.2196 -10.7671 -10.7207 6.9991 
-1.22847 -1.49722 -9.93761 -3.56576 -1.28491 33.5906 1.31798 26.4849 0.792108 
-14.0336 8.42376 -13.7605 1.34608 3.65831 1.45316 -17.0422 6.25583 -18.0974 
-1.85526 33.6 -1.49579 -14.1138 -8.6825 -14.6157 5.26032 5.35459 6.12542 
-7.00908 -11.6301 -7.24128 -0.460968 34.9948 -2.39368 11.4835 -19.181 -15.5201 
-19.1143 -1.38957 -9.90714 0.848656 -17.8336 -22.4935 24.4369 3.39525 -7.43935 
5.30739 -28.6328 -13.5507 -16.1441 1.58972 -6.47179 7.34768 -21.0981 -22.2751 
25.398 0.920616 -14.0315 2.8681 -21.4449 -14.657 4.94918 -23.0379 -4.02456 
-2.54611 -22.8132 22.3066 9.24331 -23.536 -7.70345 12.8006 16.0847 11.5654 
9.46162 -27.6888 -8.95657 12.9202 16.4203 12.2739 -0.959536 -21.2498 -6.99477 
-14.7666 -1.35672 -6.40828 10.989 -26.7927 9.47594 5.00443 14.0969 -28.9015 
5.5231 -10.1572 -25.9927 -4.77034 10.3802 -6.54488 6.90229 -6.51653 -24.2755 
5.29794 23.4716 18.2436 2.04994 -8.55938 -25.9618 15.8787 10.753 -6.45314 
-5.74671 -3.30921 -21.2406 28.5128 5.20318 -21.1717 17.5771 -9.06151 19.1889 
13.6976 -6.36279 -13.9186 4.8687 11.4178 3.28879 11.5065 -15.5393 -15.8899 
12.5643 -16.4143 20.3366 -5.46435 -14.28 -13.5846 7.17309 11.6712 3.46435 
-7.67116 -4.92879 -5.34092 33.2172 0.483665 -5.31034 2.01058 -13.3527 5.63076 
-20.1505 1.95218 0.936387 -19.1577 11.4706 -7.23218 -9.24415 -13.5154 4.77059 
-7.94795 12.0951 5.5925 0.670002 10.24 24.8536 -0.275795 11.1131 -5.05616 
-19.4684 -0.766699 20.1276 -16.8395 -0.410362 17.2986 2.29153 -7.37717 -15.2524 
-21.0572 11.132 1.58497 -20.119 13.3831 6.85583 3.32138 4.55133 -12.9164 
13.7267 14.6536 16.6399 4.71982 6.88704 3.95092 -19.6325 -10.3806 -7.07503 
-3.69383 -12.2942 15.2628 -0.363429 8.01448 8.39744 -20.3751 4.87687 17.2939 
-0.486391 4.118 -7.64141 24.7792 5.19466 10.5196 17.4666 8.5099 10.6672 
1.69823 -4.31283 21.4552 6.41358 23.3259 13.5063 -4.4972 -14.9882 16.5771 
-9.07205 -13.3669 7.8766 -3.81019 -12.863 -10.3032 -10.7237 0.957085 3.68039 
13.4294 3.54058 -3.91209 -9.58132 9.83823 20.4202 -3.30605 18.4717 5.37304 
-8.25621 -14.0496 -0.660332 -8.7645 -22.3503 -1.71256 1.29563 20.0806 -0.983089 
-15.5792 2.52994 15.1739 16.9143 14.0082 -8.58235 -3.77208 17.9447 6.92854 
14.6326 12.086 22.2288 -3.93564 4.42732 -14.7595 -17.6735 13.9122 -5.23373 
13.225 6.58476 19.2004 -6.06095 10.3884 -11.2946 -16.2679 -11.8745 13.9316 
-11.913 -15.4435 -6.44037 -4.45685 -5.47613 15.7448 3.86635 -14.9152 3.3019 
-9.74792 -15.3173 12.208 -9.88731 -12.7919 -3.07318 -15.7367 2.58125 15.1873 
-16.8631 6.11185 3.52356 9.23923 9.84385 20.1731 -6.54489 18.6921 4.63497 
-1.89061 -7.70902 7.13606 3.80357 1.12628 -5.01065 -18.1556 4.39279 14.1963 
-19.736 2.71886 -2.3204 -0.822995 -17.0486 -10.235 -3.75126 -3.50513 -5.25051 
3.36909 8.05428 21.4624 0.0298402 4.1546 -6.9115 10.0787 4.40549 22.2514 
-0.313145 3.88564 -3.03745 -18.648 8.7886 15.2527 1.95629 -9.18534 13.3346 
-14.0815 0.26273 10.4377 1.58569 10.6097 -8.2415 9.1362 6.47445 26.4472 
4.67883 22.893 8.02603 -17.6344 2.81472 20.7649 -13.3326 13.4775 12.172 
6.28911 -10.4555 10.9746 -19.6772 -5.45628 -4.49113 8.39984 5.08515 22.9961 
-7.43563 -2.97737 -0.234592 -10.7293 15.4925 5.98139 13.2673 0.12941 15.4676 
-1.0839 -1.92564 -4.33387 8.28236 15.8443 -3.23156 11.3624 -5.22738 -4.36133 
-6.52923 13.6211 7.06151 -1.70593 16.0222 -14.385 4.6694 7.75697 20.9469 
14.8846 4.76883 -11.7322 -11.7776 8.70066 4.89376 7.93757 7.67577 5.09511 
11.9392 5.34921 -15.3967 -1.48657 26.183 -7.55641 -15.8387 -4.7354 17.2601 
0.0151162 -3.95475 -9.19695 15.5025 5.59991 18.7382 -5.56421 22.5362 -5.71534 
-17.8239 4.55686 -3.19298 -22.0346 15.621 16.8608 1.68328 9.88921 -16.6948 
13.2419 5.33491 0.0685445 -0.964834 -6.24742 -3.61604 14.2473 -2.94015 -4.61403 
-12.531 11.7378 -4.35876 -0.848197 -1.61043 13.2155 8.38225 13.6927 -14.2458 
-0.826237 7.32253 5.38517 -6.78297 1.31141 -5.17086 17.7377 7.87537 4.57417 
2.96019 -1.26558 14.6082 -20.3451 -0.832418 1.16232 17.0153 10.1815 -10.6497 
-6.45418 18.2867 5.5094 5.01797 15.8643 -6.31095 -21.8402 8.5577 -2.43563 
7.50434 19.7273 13.956 -10.5964 3.19817 -7.46449 10.7564 16.1785 17.5186 
-7.04798 4.71632 11.7502 -20.1758 2.29886 -9.72794 6.58258 -7.22208 5.3161 
5.73199 -0.0790691 -16.6926 -3.2313 18.2308 -8.72184 -4.98086 -4.15759 11.4972 
-1.37136 22.534 1.83476 -9.3025 -0.518704 -6.45994 -5.34615 26.1747 9.40876 
-11.3486 -9.5101 18.8369 9.48437 4.48137 26.7845 2.95384 24.3551 1.10047 
-15.3995 19.2261 4.51967 13.458 -2.17922 5.30371 3.48131 -6.22093 16.0498 
-1.53423 -2.53972 -1.97654 -11.1739 9.98005 21.9189 0.840803 -8.09134 13.5165 
-4.09925 16.2666 -10.941 -9.9878 -2.14559 17.8089 -12.9263 -8.65371 -8.8682 
10.7521 16.8458 7.61872 21.4769 -5.88271 -1.97631 12.1132 8.46942 1.07521 
-10.0601 -1.58255 8.43099 12.3679 -5.37423 -5.51736 6.76565 16.5589 7.01874 
-3.06375 -13.1125 -7.83778 -10.6552 5.37828 11.5652 -30.3664 -3.38777 2.07199 
8.29723 3.40058 -11.9876 -8.36334 13.3623 -1.71396 -2.18971 7.69802 18.9071 
11.5464 3.60517 -8.99282 4.3406 -7.20338 14.4777 -7.54925 9.80284 1.43861 
4.5822 -7.26252 -12.5305 20.5729 13.0629 3.56262 -0.837649 16.9592 17.99 
-1.51819 22.7207 0.940794 -14.1549 1.88388 -0.668489 9.86401 5.45285 -6.15237 
-1.89668 -9.69961 20.6255 23.017 6.50104 9.20649 -10.9455 6.90577 -2.92414 
1.88782 -6.10375 17.1787 -29.5487 -1.8799 8.88161 12.4029 4.14743 15.8881 
2.04967 4.49192 -6.01175 -10.2533 8.50348 15.9699 11.7998 -11.2241 14.4881 
6.19817 -0.591974 20.5247 -0.737204 -3.56272 -4.67426 0.769055 4.04541 30.7742 
14.8936 -3.30291 18.0805 0.723581 5.64944 -2.8059 5.25391 15.0572 17.9267 
-15.9036 8.47135 10.3114 -6.99517 10.1298 3.07569 10.031 0.627803 19.0443 
9.88847 10.8389 -9.47162 8.93402 -9.97821 -0.577932 8.32283 24.1628 7.57855 
-16.1914 2.42533 16.413 -1.04998 -0.462589 -10.9701 14.6965 -9.609 11.639 
-18.5398 6.03518 15.2153 14.6523 -2.24612 -0.799808 -7.43365 5.93232 25.9278 
0.11917 -11.9202 13.6343 2.3713 12.8199 -16.3806 -6.74707 -10.6235 -10.3781 
17.1678 10.9656 3.128 -15.3731 1.44576 1.68647 5.24229 -2.02543 -5.43863 
0.144651 -17.7402 8.88355 11.8418 -17.347 4.92899 16.5498 -11.5368 9.68073 
0.827297 -9.5754 -9.97258 -3.0357 -3.56455 -13.3943 6.98619 9.66195 4.97275 
10.6004 16.9574 20.4097 12.2332 7.48599 -8.42152 -17.7062 8.0513 14.4724 
3.90401 1.81482 9.38829 12.1122 -9.50521 -10.4488 -0.666892 1.06785 10.5118 
-13.1528 9.02316 4.87657 11.2097 -10.295 -8.94352 23.5959 13.5102 16.4556 
6.25711 -6.78626 4.45026 -2.10544 0.223222 15.6803 11.7639 -4.19127 -6.9662 
8.65974 2.93614 0.0452245 -7.95016 1.91068 17.4835 10.8116 -0.374204 -10.3153 
33.3769 2.73888 8.48903 28.7354 6.76863 6.59751 17.5386 -4.56801 18.7434 
11.2357 23.0555 13.1776 15.6412 0.240543 21.6336 4.87672 -21.3263 9.5927 
6.91987 -9.77256 -10.0166 2.06722 -0.247481 1.63306 10.5314 -3.8564 -11.9797 
7.44093 -2.86006 -10.4149 2.15725 -6.66499 -1.66066 3.91553 -20.7634 0.946636 
7.52339 -3.39027 -13.5049 11.7178 16.8731 -3.74457 7.32903 -12.8796 -2.402 
17.0157 -0.320141 -14.8128 0.719628 16.7397 -2.36142 19.4227 7.89353 22.3172 
7.62598 2.42474 -13.925 10.7781 1.99203 -13.2057 -2.82963 10.1263 14.1168 
6.09545 16.1582 -11.2156 -12.1177 -3.67829 18.8602 -2.271 -12.4462 2.44966 
-0.818372 17.02 14.8073 6.37241 9.87869 16.4438 0.445943 -7.81967 10.6684 
-13.5149 -6.27856 16.4436 -3.60044 1.0027 21.7664 -6.68565 4.40844 4.05386 
19.3072 10.0555 20.3022 7.73216 16.2024 12.8872 23.7778 -8.23127 13.2997 
7.74446 -22.1669 10.7137 0.256549 0.556524 -4.54493 -4.40231 0.289915 8.37267 
-9.76956 0.517579 -2.53328 21.8558 -7.99525 -1.41191 14.0671 3.78863 23.4431 
10.1067 3.60967 -8.56519 19.1736 3.01869 21.3557 8.98283 2.98512 -3.30163 
-9.05283 4.13332 18.9176 11.9476 -8.59178 20.5788 -2.63599 -0.847652 9.03285 
10.2082 21.8581 -3.0636 15.7507 9.01797 22.61 2.8047 2.13476 1.07015 
-6.13269 9.95297 20.7058 5.11249 15.9374 16.8204 16.7652 -9.43017 13.9911 
-5.92701 -4.45032 -8.86573 20.0718 14.1617 24.4725 -11.3577 9.35977 5.87129 
-1.29378 -13.2255 12.8593 3.86244 19.5801 16.4476 19.2625 -5.64303 -6.61784 
5.99363 -16.5461 3.00728 2.91538 18.1671 3.32986 26.534 12.9299 0.784983 
7.55756 17.5446 -10.282 14.5405 9.59883 21.4579 24.5962 3.15777 -3.35493 
[...]
CELL_DATA 2484
SCALARS scalars double
LOOKUP_TABLE default
-3.3622823115 -7.2176293333 -9.1749725743 -4.4793019202 4.5382118401 8.9824696587 2.2251902105 -0.65292371057 0.93338505885 
-6.0522535244 -1.1093446672 -2.5732497967 2.6283360365 8.5450845323 -3.2061553682 -1.3125442244 -3.9400491529 5.6602715191 
2.3973389049 -8.8981276178 0.0099374661367 2.7512368422 -0.8920533274 -9.2859421443 -7.1761829301 9.8629459465 7.440499856 
-9.2470019771 9.993810037 9.8362535514 9.7403082258 -9.8094543913 -9.9973122854 9.7264068261 -9.9951847685 9.9954575631 
4.8274997018 6.8613609312 -9.2047427871 7.0556156405 -6.8697156924 9.6561411645 4.2799039286 -6.9546944989 -0.11484227096 
2.9641624374 9.3994586408 -4.6072361261 -4.4480118912 9.8715395351 -5.884350653 -7.3721315745 8.1338680666 -1.7501001567 
2.4067848279 -4.4448116543 -3.1782076265 5.6549277945 -0.49091656777 -6.2451001008 2.9849479226 7.5247132584 -6.268477979 
9.3881588399 6.8205072152 -5.6138355342 -8.3041393973 -6.6216437887 -3.6435621379 -8.5853541099 6.0353656186 -4.2230979913 
9.9924803268 -4.4699687184 3.1594416062 -6.7020231574 -9.6516211715 8.2434117614 -5.7190246767 8.1588688718 0.79948263803 
-0.3863944927 -8.0686296642 9.5726099349 -5.7532240745 4.2933649232 -4.9382377808 -9.8713687581 3.6656666831 -9.8572341494 
9.8954407729 -7.6193781705 -9.5829516579 4.8484083395 7.6592620805 8.0569960618 4.0247504174 -9.4921183138 9.9131025998 
6.0268732681 -4.1328618776 1.1384238191 -5.0918480625 9.8574358707 9.8449800999 -9.8555246166 -3.052729168 -9.861335044 
7.005854654 -9.4891089544 -9.1428220556 9.4053508648 1.2096082782 -0.95506049961 7.5249539332 -4.6961547186 -9.6173815458 
0.14210745366 4.1452148454 5.5950038434 7.6714471128 9.8405493199 9.9518449992 -9.738525158 3.5620031883 7.6940392727 
0.53176373841 -8.2796001359 4.839556358 -3.0971731527 -5.0192316921 6.52763623 0.72337676693 8.664596506 2.2841879768 
-8.7305455475 3.3301640059 4.1993206304 -3.6446377961 -3.9910944126 -0.25407212857 -7.9232004124 6.7665453821 -0.24176041434 
3.5011163809 5.7154910239 -0.39138633262 4.8956911048 2.466818976 -8.1998401064 4.7733185512 -1.3985549715 0.54891646313 
-8.8944187422 8.9954272962 2.9566409168 2.4085299363 9.2821255162 6.4892336523 -2.5984378533 -0.51225485776 -0.47750602403 
-9.3266286079 -8.8770981258 -8.458104929 -1.4112334552 -5.5250523698 -0.80913701458 1.3987779033 4.7199399021 -1.9194780332 
-3.969467444 9.0563725144 -1.3990968255 0.18384164466 -7.9447976454 9.9012979807 -1.5013794633 7.9744535823 -1.0648856922 
-1.7271066028 -9.8194234289 -2.5231981708 -5.7687333764 -8.5247622473 5.995153501 -9.6122110848 -8.0308196438 -2.7448339651 
9.5218397961 4.3709655351 0.22961269119 -5.753728166 -2.702472641 7.7174203884 -6.996193571 9.9478868215 -9.8832028421 
-3.3193485213 -0.40410868843 -3.5708998756 0.13697542369 2.9446690972 3.5255734391 7.7935459527 -2.9888759372 4.3092240765 
6.5534308698 -1.5236083386 3.0247464135 -3.6437191609 -0.11401275422 -7.3810487995 4.2179795101 7.2947331318 5.2912107746 
6.3010709299 5.6144929181 2.0961966371 -4.9848304365 9.0458945246 1.3110087517 6.8545468983 -8.7129493735 -0.17233447881 
5.6942448492 -9.077687307 -6.5263782654 -5.7100466824 -9.6235833087 -9.9111348719 4.461854624 5.8469645713 -0.96948301897 
0.22406314926 8.2844921592 8.2271270844 -7.0687422681 -2.2475296715 8.6643294365 5.3487422292 -4.4109798209 -3.1952676246 
2.5499982737 0.055175078493 3.2709057144 -3.2289406307 -8.5193237303 -3.6239062096 6.1015346265 -5.0286773885 -7.5251004288 
5.6323704664 5.0422449889 7.1994861871 0.80046040503 1.6687039009 7.1005577611 -7.0766599476 -9.0284917732 -6.4962652074 
7.2558941984 2.6640963305 -1.0802908891 -2.2208482433 1.3106544184 6.9028383454 0.60082910306 5.9531164406 -9.8216047579 
0.18818846395 7.0424040174 5.6881505119 -7.6933901293 -7.7465033276 9.1695646231 -2.4196661773 0.6245338409 -0.43481895573 
-3.6610287073 -8.4488813836 -3.9054900829 -3.8209863798 -8.9736945822 -7.9567529031 6.5845869666 7.3264352693 5.1602475108 
-5.3690206246 -5.7609437385 9.1895876241 1.6862104792 -7.5374364883 -8.2983548101 3.8432225205 6.1228703806 -3.7892395014 
2.2343663979 0.050587562383 -6.6849296541 9.1113104086 -1.9045202772 -7.3213929097 -1.0176811614 -0.8228823129 0.86041746846 
3.8482023849 -5.548850783 -8.7665864806 8.2825431258 6.8458244131 4.8168072941 -7.3537709738 -9.9989790769 5.8837034454 
-7.9015247151 8.4808670688 -7.2566833975 7.5852318065 6.6343787775 5.6833745637 -8.7249361114 7.9290867588 -9.6987334727 
-9.6324740901 9.3769755008 9.288608461 -8.8298782227 -4.1338172536 -8.9114521672 8.1620122352 9.6846395248 7.8397181176 
9.7202953344 -9.9483676622 -9.9002565054 3.3870852004 -5.6704093729 1.4743249031 -8.8395811212 4.3607750707 1.7113157475 
5.2914504704 2.1639930313 -4.9373370656 -7.5015379716 4.237717055 -3.2773768415 8.4078370219 -9.1246053937 5.0233269562 
-3.4505354838 -3.8624742756 -9.4907160724 -4.3410244205 9.6985943942 9.4145391685 -9.3893943171 -6.5207592165 2.3218896914 
6.0344590586 -2.0699849817 -7.8826016653 3.123686813 3.3569999179 6.1694382727 7.0453470582 -0.41009900878 -9.4240340861 
2.3438741677 -2.6470007487 -9.4394909542 -7.0214184352 3.1620479623 -8.6284492155 -9.9767603035 -9.135730419 9.6765160363 
8.8557636041 9.5389066306 9.4566290846 -9.0022973105 7.3411154434 -2.6357124342 -3.3112220212 -1.3734798646 2.2806186292 
6.2935652021 0.66994323436 -3.5571813082 -9.9002103297 0.12083727247 7.7057675021 2.1944522167 5.1677942553 5.0788540899 
-1.2969957525 -6.4857203927 -7.9276861636 -4.6640315838 8.7179874856 7.6620402208 3.7724996293 -4.7650055588 -4.5479546879 
3.1031817258 3.7034678977 -4.2650311257 -9.2294937334 2.4801145103 5.0233260577 -1.4831403453 2.9388734782 -5.6515025503 
-0.53008140533 7.3311213777 -4.8809751564 6.8208367166 -0.89371419003 0.3554167993 -3.3009832653 -1.4470360112 -0.85672924946 
9.9564623197 1.1938157023 -0.23451248685 -6.2297069261 5.272468784 -0.39181889271 -6.2547577194 -0.13902631945 -0.0060482810799 
-9.4738687429 -5.0466716319 4.5238549431 -0.048987813312 4.2674876972 7.4300645598 7.6708674294 -9.962508878 -7.8767801418 
9.9447340553 -9.9893231725 -9.9162641594 -7.7310526786 9.9898993945 9.9839821351 -3.4232803297 3.975945111 -4.0970520282 
-0.28057990838 -6.132483662 4.9233762839 -5.746952197 9.3892209321 -9.9738374863 -8.5152648145 9.3730772157 -0.95514647487 
-3.7268241917 -8.6627627545 3.8689699899 4.2078582001 -8.0642001464 2.8203810945 -3.2110866523 -4.5277739302 4.3936351677 
-1.2746034821 -4.516903439 6.9108521173 -7.0405642028 1.4167890788 1.0308021935 -8.1651499133 -0.83609957472 1.8593317113 
-8.5919882184 1.6738199303 -7.0984842195 9.3746034894 4.6359344634 3.0315154944 2.1831765181 -0.17065817031 6.0543245389 
0.51127708576 2.1183947298 7.761118285 5.4943501265 9.7701783234 -9.8522575806 -6.4075125566 2.7716751461 0.80477774074 
0.0026593362603 7.1009119066 -8.9759284669 4.5408220772 -1.1659248007 -0.02521303188 9.4303211853 -0.33916102419 2.7610735549 
-9.285409872 5.74499142 8.9839796094 -5.718159766 -4.4943213811 9.7285510223 -4.900153666 -9.8956100579 9.4927894836 
-8.428972193 0.54578809491 -1.9695087849 6.9054707905 9.8793527144 -9.8991722275 9.7361833182 4.9411053921 -9.7100643082 
-1.4889870763 -3.4226109395 9.955715763 -2.7954075612 3.7396882596 -9.5698506455 0.3522036219 5.5059498429 -4.6589292013 
5.9366628158 -8.6452684763 5.1815954786 -0.59107408399 -9.8475497555 0.78962588655 4.7814352087 1.7061256938 -1.0287215564 
-8.7230380361 3.7427184822 2.6573894982 9.3916659912 -5.946360625 2.8329847476 1.480993863 -7.8804972974 3.2692050885 
4.0718595683 0.64968042584 2.4274028226 8.064584225 -6.5157355385 -9.2638883526 8.3084796138 -9.4459927006 9.8891225208 
-4.5243305202 -8.2985841316 1.2239214604 -5.0002530175 6.6974713834 1.4369075975 -5.0596974033 3.2372854944 2.1382674498 
1.2361084702 5.6745193863 -7.814156004 -1.2047734636 8.5922688742 8.8303892866 1.7565529788 -0.24786400485 -6.865086449 
-9.5385376715 -6.7939164521 -1.434543015 -2.569129048 7.7945949825 1.7021835854 1.5065610451 2.2442889414 1.4568291306 
-2.4086969449 2.8059256658 -7.9495881847 1.5945577618 -0.96664114364 -8.5954439936 -8.8852926325 -4.173765649 1.931102067 
1.9658989912 8.8014903056 5.6560173429 -0.19898752062 -0.44197915061 -5.9734950443 1.1442710879 4.9780895816 -5.2278242174 
0.047792884821 6.5158074986 -8.3555616832 9.1487287375 8.5708269982 6.4533585949 -2.7487891236 -1.7482207408 -5.0901934523 
3.0117021907 -1.4492689145 6.4389893602 1.2792000687 -3.3931160255 -3.4983104532 -8.9098312227 3.4615200058 -2.9265000439 
-6.0886661977 1.5378506735 -3.7901857475 4.3681491266 -1.7463490112 8.497883684 -4.4476309547 -7.1543792424 -7.1803591001 
-5.8456933969 -8.2338836099 -3.0315364159 7.3697335842 4.2282402378 -2.8177744268 5.5786963497 -7.6202252074 4.1473137748 
1.0343442838 7.6518497698 -0.26879012309 7.8775974833 -3.655124164 8.4515553579 -2.7017910575 -1.3247057613 -4.8142060948 
7.9956936348 8.7014477391 -6.3002681396 -8.1106592164 8.9082409211 9.8286675591 1.756480905 -9.7478208632 0.34614477572 
-6.7813344691 2.4430651979 -3.4719551079 -9.8269154751 4.7474315862 8.6437301651 -8.2023781231 9.1664445499 -2.9645289986 
-0.70262800053 -0.24728892918 -6.2709596521 8.9463361898 7.4811039206 -7.6875280737 7.6758947128 9.2636936207 3.3638429321 
-9.4441699994 -4.5057062826 -5.2729504695 6.3066170384 -0.35338533825 -4.6774652744 -6.1032513571 -2.6229255862 5.3157436647 
4.0102279627 2.0497804461 -4.9376855939 -2.8969563825 0.23865469157 8.3692765119 8.3533798729 9.996707035 -6.3596323149 
0.76562819119 -1.6812012254 -2.0411798249 -2.9025078754 9.6928560099 -5.6851974947 3.7571143729 -6.6315221818 -8.4378734101 
-5.0621306311 5.3097557729 -8.3846846848 -7.7662331658 9.9845568843 9.1077088597 -3.1016286737 -4.520158803 8.1782175424 
1.0562403706 4.0712142953 0.17697727444 -6.7517284965 3.3642345101 -2.2669029646 -3.7909617657 4.3757068033 1.0143904296 
-2.1629816727 4.5817818781 -2.1526463979 -7.4902444798 -3.5207211949 0.019540855088 -6.2533517459 0.63576468883 9.2876550846 
-4.0484541496 1.5382101671 -6.2268044192 6.6348356729 -0.41696263366 -0.9868261638 -7.208569796 -7.5834326795 9.8538514669 
3.12765184 -9.1055613787 7.7376973141 -1.2461444051 -8.1547795108 1.8321296671 -0.61078855644 -9.9976625339 -5.9894104765 
0.93343251115 3.5717598294 8.266354831 -2.0806582992 4.870430936 -7.0335595532 6.5913315003 0.54467761628 -2.9461801024 
9.4081883717 -6.5577591258 3.3814804533 8.674802953 5.1548654441 -1.8660530335 -6.2114029762 -0.97824459009 -5.6139377851 
2.7104291486 2.6693385524 7.3841838676 8.9239313178 -6.2886874022 -0.19334309887 -0.5131051779 7.6019923242 5.7664258229 
-3.7804347956 -5.896155268 -9.3204855949 1.1618233985 0.15887924557 5.4430572149 -8.247511962 3.4940295409 9.3024624161 
-3.4172325021 2.7607109064 9.7573224799 6.4217902999 -4.8928499397 8.478664507 9.8918812987 9.3789194117 -9.5606537734 
-8.6460015858 -9.4072635252 -5.9220126686 8.804727762 6.4776132228 -0.70725292285 3.8221139059 -0.78108616937 1.1532538296 
-9.7509687941 3.4511675064 -2.0259488166 9.6142014955 8.661186049 -6.1003531142 -9.5833801834 -1.1501836288 -9.2266164766 
-3.4138970424 4.1024581156 8.2836041482 8.4775292973 -8.5437070847 -8.1217596764 -5.1646726753 1.4251674069 5.2586675009 
-1.0804739583 -4.3780646757 3.4225667491 8.8702098103 -1.7714692519 -6.3301866209 2.0373304792 -7.7939664827 6.9991093606 
3.6240972328 -5.6455380956 5.1491128501 -5.5918400429 -4.0083965194 -4.8189892011 1.0123023799 -0.33391367013 -3.2870924195 
4.5161821269 5.4413485674 -0.18959470972 1.11979689 -7.9306813142 8.5424487981 -5.1213925306 -1.6507473296 -1.9313949334 
6.1878191144 -2.3934871743 -6.9306365738 -4.0274835745 3.4363858947 -8.9943024398 5.321736535 -5.0259963657 -2.6042440932 
5.9520741943 -3.0314469631 -1.0361358755 -3.3934742252 0.87976274684 3.175625205 2.3397494175 2.5710915678 -2.8805271832 
7.330792189 3.52243515 4.5252481454 -6.7399890669 7.5203887003 -4.3576598593 -4.2849186613 -4.058942984 2.5666979103 
5.6399106564 -2.8767876673 1.3706173369 6.6396298464 3.7935796975 -3.962043031 -0.85163504885 -3.7519401352 7.8710823789 
3.9744670584 -4.4047843919 7.3574497929 7.6409247796 -1.0014134004 3.8926732706 5.5565904646 6.1099730541 -8.8251510292 
5.8829619212 8.8702206866 -3.9709085555 -5.8351013165 7.5937511651 -8.1173913197 -0.22522465354 -6.6103331786 0.56800926389 
-4.5381032558 4.0939403285 5.8065441022 -1.7788198471 2.6181346938 1.1373781412 -7.9095375456 -1.9868437237 3.5644115476 
3.0825120482 0.29123472298 0.51193332041 -5.5106041178 -6.9892020402 0.45244225511 3.2386927194 0.31563373731 -2.1367987061 
-5.7507887879 5.7077409164 -0.15695573336 2.9611154387 -0.29880865377 -7.0979813139 -0.34817865755 5.8710028987 -4.4356904736 
3.1874371109 -3.6246379958 5.2991695022 1.8871101568 5.2744199045 0.32602073009 0.12956578749 7.8964998946 -0.37105679195 
2.0529517345 -1.1107823199 -0.10385736472 2.415410439 3.9884077286 1.0641396055 7.9307972313 -5.3646579576 -5.0472004049 
8.4621615 2.4409075353 -6.0335011866 -8.6922411361 0.73851986016 -2.6026975481 5.7488994069 -3.253411937 -0.66717587028 
-9.1079006108 6.2628047246 -0.78394094745 -8.6138805931 -1.533350558 5.5435415418 -0.21747959498 -7.6642857242 -3.6999677313 
5.3358939208 -6.504914505 8.1198460802 -8.7342812777 8.4948657219 9.8032862949 0.30271032326 3.0589319252 5.4701121815 
6.5077243296 -7.0923985364 1.2232109745 -2.0628935938 7.3038983955 0.90743065792 -7.4431564027 -0.62706875403 1.2955458134 
-0.7414624819 1.2105968529 -0.16693881597 -7.6156475059 -0.20553100795 -4.587903221 0.92674665031 3.3697001941 -3.4476496162 
-6.5184343051 1.6691059935 -6.8249591775 8.6639378791 -4.8160518407 1.281189101 0.31103147754 -0.86836247177 0.5627298044 
-3.0249153075 -8.1417597706 8.3450557182 -2.7162857667 -1.6690824263 3.3346363706 0.30031033037 4.5545501338 -1.8160396154 
-6.0987577388 6.3601195354 -0.36237785919 -6.2834800653 -0.96546238715 -1.3859340362 3.0662966818 -1.3775715115 6.0138806888 
-1.5083839542 2.9730500417 2.0540801334 0.035018227789 -3.9271210129 -9.087670613 -6.850173186 -7.3402820355 6.6373172195 
-0.5835714418 -5.6820068454 1.5371980027 -3.4681729918 9.1223511263 -3.1138518488 5.4321121182 -6.1174363679 -2.006203826 
1.665523208 9.1083312292 -0.95355837395 5.3714490667 -7.0821489962 -0.54672780554 -4.3772161088 -1.7500835698 -3.2067440756 
4.0567007504 1.9045331493 0.26669484208 -5.3932495985 5.6474061786 -1.070401603 2.0587011566 5.4285785105 -0.70251626763 
0.041450715081 -5.0675221443 0.31739547961 4.5506583913 1.5587489858 -8.4551992617 -9.4004109021 -0.027407729975 8.0054346526 
-4.9303696795 0.67845165122 -5.0209600176 -0.26565059308 8.0028045417 4.1609340623 -1.9252389474 -3.9026147452 2.2872578236 
-8.4461426786 9.58383231 -4.0832703122 -6.3967613232 0.34073154535 -0.15504918199 -3.291098326 -6.8708979236 2.3477916804 
4.4026659295 -2.2435705848 5.3057365758 7.0485882152 8.5926413048 2.4012821945 -2.056016995 -4.0915836563 -5.5083981163 
7.1107975106 6.310777534 7.5566618691 2.5740455392 -2.6964991034 -3.2707775162 -6.3620941402 8.4728411815 1.8175642916 
-4.6337828127 -3.3237247548 -9.8143169604 4.5569543676 4.8848178606 -6.2148951621 2.6031840809 1.1511157606 5.0341533515 
1.2740320951 -2.2542883363 -3.0147629772 -5.9477023846 5.1004242516 0.28611411266 -2.4468802241 -1.343326817 9.9361130383 
5.4852891712 -5.4520025622 -1.7147725797 -4.2838564202 5.7781599305 1.5900971203 3.6846495462 -0.40304210209 -4.5091322942 
-7.3367549794 5.2892905758 3.0410623966 -0.25923090321 -3.5569920703 2.2417164694 -6.674704709 3.1779091236 -0.27253334905 
-2.83016515 -4.0098681151 7.0256855588 7.2882575998 -3.1384795555 8.3032852033 -6.1373747445 1.5608367288 5.9447992276 
3.250219893 8.9602059025 -4.5633767168 -4.767038906 -9.5105211958 -3.1472930008 4.2910134748 0.49997502304 -6.7527028502 
-4.5080290978 9.8571401133 -3.3388610644 -0.14341053735 8.0809673229 -7.0549532491 -2.321604391 3.59360842 -0.4121639927 
5.6907049802 0.29496721708 5.0950015335 4.8456555678 -7.0957490005 6.8577226742 2.4974865649 2.9725324213 -4.0960453796 
-7.095091908 3.1007852807 0.30895869898 -2.9003460351 -7.0691782004 -4.5988305217 -5.210810205 6.7500995745 5.4529633973 
1.3903204596 1.7841897848 -9.9932951607 -3.7908615929 -0.008726203695 -1.0313787496 6.0270295908 -1.9442209054 0.57670177365 
-8.4575100937 8.1723736603 -8.9391654745 -2.7553532252 -2.2649491957 9.2028951757 7.4917245193 8.7112784769 -1.9555643462 
-9.2440252385 1.3809558081 -5.1289272466 -8.1614309205 4.4291244695 -1.7929377646 -5.3552457331 0.57110416565 3.6052751958 
4.4220170757 2.9644315472 0.28570194352 -4.3560403857 2.5242970967 0.31211916278 -6.1338933493 1.4445116659 -9.6645195409 
0.2471515936 2.6950763888 6.7388336678 1.8356421908 -0.9248296841 8.9397334299 1.4319802444 -8.6515246728 1.4799096762 
8.168146899 0.62196977871 3.2137190225 1.2288809791 -0.024350915528 -1.6819327111 -1.2644832282 0.035705356202 -0.57691660891 
-1.7248611699 0.40461626615 2.7736083316 -1.7475100613 4.7179302456 4.5850350767 -4.1974220851 1.4499198412 -4.9836894292 
9.1288726464 8.2398483633 -9.3006864363 4.0614844739 -8.8224272128 -2.5811575915 3.4955909216 -7.3794351079 1.6859492307 
4.9035317711 -1.4425478285 -7.2206645538 5.0551005369 -4.0083380179 6.2162976721 -0.023050214971 -9.6640610906 -5.4156385055 
4.1426327803 9.89882695 -3.6041929481 1.1909281291 -1.8308116291 8.1293209805 6.3292302549 1.9147368073 -7.2829092194 
3.5535697867 0.99323954138 0.32493275682 1.2054471925 0.21415572848 -1.3269614259 -1.891840002 -2.1963220574 2.1937949399 
-5.7702708211 1.4213796449 0.099018235142 -8.7606352355 7.515792823 0.26106822295 -5.7143232865 -1.037108832 6.6778752943 
-7.8100789541 2.7683807707 -3.8308367388 7.498101867 0.81689529884 5.323685749 -7.2674893108 5.4796399075 1.0740751617 
6.2152985732 -4.8397501844 0.84347894179 -0.61557732421 -8.1525351717 -6.9491078395 5.5781245799 1.7476741466 1.8071536977 
-3.7140921381 5.7886319594 7.7092055085 0.62213190882 7.756733007 -9.4928558127 -4.0266999845 -8.2228620504 8.300135453 
-3.1557299079 2.7991940769 9.867272369 -2.8965436716 -1.3889654888 -0.64123581323 3.6319787191 -1.5519437397 7.7138286553 
4.4414473927 -6.8193685395 -5.4004937292 -7.3202298752 4.4318053727 5.1192054457 -0.86003400773 -2.7101803327 -2.7120490976 
2.5374045591 -6.6762364405 4.657671729 5.7053192098 8.1616608505 4.7190532648 4.6361201629 -3.8255671085 3.3286023246 
-4.5003007857 1.9090198669 -5.1667230742 -3.2343741312 -3.3720456844 2.8254487544 3.0316383089 -4.843917822 -1.6155766586 
-5.6123268075 4.2658075733 4.2715004817 -1.8350915222 9.0546805051 2.0946051461 5.7091816694 -0.86914750391 7.3144628967 
5.0588809095 1.2232485642 -6.6169699751 -6.0969628702 1.8318797191 -6.9188307232 -1.7494402271 7.1244435326 5.4560254268 
-5.9069978429 -4.4854732537 -1.4774858048 -1.8210176419 7.2955953922 5.3659681663 -1.5381011126 1.4255923722 -6.5848872578 
6.1457672944 5.966484059 -0.52264023582 1.7624469768 3.2611987898 -8.3269218977 9.9140158009 -6.500983943 -3.908762178 
-4.3074558559 1.5062972261 8.2770451696 0.93167176337 -8.596823023 -4.4495228693 5.537647964 -9.7861092448 3.7246018215 
-3.4227798751 -4.5476882021 3.135409877 -4.0072485107 -0.97228739791 -4.729730925 3.5732124449 -0.59916188096 -3.6428546423 
3.0081941597 2.2272257923 4.6226432576 0.60771304132 -1.6901375092 -1.0089833997 0.4681687122 -1.5576026711 -3.2277093964 
9.5936201636 5.2388604533 -6.5470896919 2.1591033572 5.0133805111 -7.087739175 -7.2249081214 -5.0064819843 1.334678386 
0.55083444608 -9.462176549 0.84320837704 -9.0468208109 5.5954962753 -0.56957351561 -6.1419643697 2.7389848679 -8.8421601321 
7.6305979 9.6282435348 6.5626661414 0.83394691219 -7.1938689858 -6.8631759837 -9.7305598471 7.2251472846 6.6933303123 
-4.3899954499 -5.4678173548 -5.5484969139 7.0124538389 -2.9193509952 4.4226725175 -4.1369639936 1.2137884689 9.1553793253 
-5.7451080416 2.5169043514 -4.6654888952 2.4558821066 5.1457364635 -2.0332395649 0.26253513179 7.8357112429 -3.4887858367 