# vtk DataFile Version 5.1
vtk output
ASCII
DATASET POLYDATA
POINTS 1244 float
-14.2479 -8.14321 -6.01128 4.05084 6.88983 -18.5132 -1.95437 -13.0038 -3.57147 
6.71179 8.42936 -6.68652 -11.4574 0.381126 -0.579082 -9.94023 1.39687 1.60477 
-6.43305 -6.76838 5.48934 0.901758 -2.77062 3.15642 -9.54049 -9.16702 25.8036 
-23.8609 -24.7436 2.58024 -25.4965 -1.3316 -5.45552 -22.095 -21.7115 4.31776 
10.7667 11.6564 5.11478 -20.4034 -24.7206 11.7915 -14.9424 -5.71514 22.5607 
-23.0668 -25.4476 4.72984 -14.7548 -11.2275 -11.0497 -12.5391 19.2417 -16.8518 
-9.03689 -20.9206 -11.2259 -15.5234 -1.34973 -14.6503 17.6021 5.16162 16.7803 
-20.4531 4.15445 -20.3588 17.5571 0.216972 16.9489 -13.9099 10.0306 -14.4761 
-9.65865 32.5395 -9.26658 -17.9732 -0.704582 -19.5894 -26.3063 14.1396 6.63877 
-22.1562 -4.36759 14.1391 -26.8454 -7.43419 -9.87249 -22.233 -26.4717 11.5795 
-40.719 -4.36933 4.74238 -23.4667 -26.121 -3.05449 -28.5521 -11.6685 17.4524 
-19.549 -5.32177 -6.62035 -23.9121 16.9023 21.3458 -26.2353 -0.30015 15.2649 
-29.4019 4.26409 -10.8947 -3.9588 8.63564 4.53113 -24.0946 10.5662 -21.3556 
-35.0492 5.43021 16.7227 -25.3657 -0.00439015 -20.5796 0.0475861 -5.09959 0.666797 
-24.863 -5.59237 -3.79976 -24.047 28.7075 4.51931 11.6071 -27.0449 0.0490872 
-4.31724 -22.2362 10.3268 -12.781 -19.4127 -14.9683 -5.00725 -33.3278 8.30956 
-32.6255 -29.8764 6.72892 -4.78213 -33.0806 -0.583131 -16.0868 -24.521 20.4858 
-5.47354 -21.5878 -4.97025 10.0274 -24.7164 23.3307 14.3829 -4.93659 -27.5095 
-12.2185 8.22728 -26.6632 7.8646 4.36795 -7.30976 -19.427 10.7771 -25.6555 
17.2852 5.45544 -34.7323 -19.9151 0.546553 -25.6344 -0.00366405 -3.50552 1.50532 
-0.783646 -5.6639 -25.4727 8.91818 28.1983 -20.5085 4.68391 6.69345 26.0787 
-6.93956 -10.7251 13.6964 -15.5966 -11.9328 -4.19892 7.64616 7.60297 -7.70368 
-21.9368 -22.4012 4.48736 5.9974 6.05493 15.9811 -11.5929 -11.548 7.09431 
-0.464447 -0.586981 -9.41175 -3.58694 -1.14982 33.4892 1.48754 26.895 0.514963 
-14.2845 8.02094 -14.5757 1.86313 3.97972 2.23596 -17.6665 6.10698 -18.6458 
-2.00341 34.1881 -1.45499 -14.2491 -8.7598 -14.6766 5.23435 4.64992 6.1718 
-7.31752 -12.1688 -7.62158 -0.403253 34.9043 -2.41551 11.8858 -19.8656 -15.9192 
-19.3029 -1.68558 -10.4302 0.346107 -16.9879 -22.1178 25.4804 3.40479 -7.65959 
5.36634 -28.7374 -13.622 -16.5583 1.51211 -6.77321 7.50493 -21.016 -22.467 
26.4415 1.74844 -14.6244 2.65161 -21.7497 -14.9167 5.58031 -24.0982 -4.72022 
-2.64273 -22.7283 21.628 10.0599 -24.4645 -8.04574 13.5164 16.2971 11.7991 
9.84286 -28.3992 -9.53768 12.9161 16.7946 12.0245 -1.06012 -20.5381 -6.7819 
-15.6971 -1.54086 -6.21437 11.0684 -28.3562 9.64219 5.20658 14.0536 -29.8019 
5.61053 -10.6416 -27.1511 -4.62839 10.4639 -6.28621 7.13239 -6.96435 -25.402 
5.37898 23.5496 18.9297 2.1444 -8.45929 -26.8098 15.1146 10.7228 -6.78141 
-6.0241 -2.79935 -21.9147 28.8396 4.8829 -21.076 18.2885 -9.46849 19.3927 
14.123 -6.69499 -14.4875 5.00672 12.2461 3.49787 11.7417 -16.0166 -16.4324 
12.8034 -16.9161 20.6169 -6.20814 -14.7282 -14.0275 7.02912 11.3832 3.47128 
-8.21455 -4.87996 -5.18541 33.9127 0.699787 -5.52236 1.69556 -13.5808 5.5138 
-19.5622 1.75293 0.96865 -19.6933 11.4826 -6.92804 -9.28853 -14.1458 4.83228 
-8.29547 12.3808 6.01741 0.974146 10.0977 24.661 -0.310218 10.849 -4.8378 
-19.8299 -0.820646 20.3114 -17.405 -0.369161 17.6616 2.56208 -7.39079 -15.1154 
-21.8155 11.3747 1.40743 -20.4985 13.5395 6.85838 3.08825 4.311 -12.8907 
14.5897 14.7823 17.2166 4.60944 7.21053 3.92219 -20.0652 -10.7265 -7.04975 
-3.40156 -12.7249 15.1474 0.247631 8.00973 8.66511 -20.9037 4.23911 17.1985 
-0.15153 4.04558 -8.1222 25.5022 5.24958 10.0729 17.8584 8.25863 10.7245 
1.93649 -4.78076 21.9291 6.6599 23.2376 13.5193 -4.3265 -14.8491 17.2013 
-9.12779 -13.2839 7.84391 -4.0715 -12.8828 -10.0687 -11.0215 0.657352 3.88459 
13.7905 3.23895 -4.00038 -9.29928 9.95309 19.9575 -3.33672 19.3596 5.75495 
-8.39585 -13.987 -0.748532 -8.77396 -22.8725 -2.09359 1.1606 20.3753 -0.785463 
-16.2354 2.35301 15.2748 17.6065 14.6455 -8.86127 -3.87873 18.4532 6.43633 
14.817 12.0761 22.4522 -3.72107 4.20171 -14.9833 -18.1871 14.023 -5.45052 
13.1852 6.61504 19.2763 -6.50822 10.5331 -12.0904 -16.6234 -11.7706 14.1263 
-11.6967 -15.8517 -6.73592 -4.93183 -6.02813 15.8182 3.95275 -15.4775 3.22975 
-9.44179 -15.546 12.5413 -10.2517 -13.8108 -3.93826 -15.7887 2.39009 15.3886 
-16.9459 5.82975 3.69315 9.69035 10.5128 21.071 -6.56285 19.1876 4.31179 
-1.88267 -8.27258 7.03413 3.98687 0.839803 -5.46642 -18.8065 4.4711 14.1675 
-20.5207 2.7865 -2.74807 -1.02293 -17.0145 -10.2531 -4.46289 -4.52199 -5.8477 
3.36564 8.62897 21.8604 -0.0559643 4.19376 -7.20872 10.7155 4.4306 22.8199 
-0.487887 4.06705 -2.85816 -19.16 8.68055 15.1524 1.63556 -9.8637 13.181 
-14.0481 0.401354 10.6805 1.29898 10.556 -8.472 9.45788 6.51126 27.0899 
4.99024 23.3401 8.22797 -18.2631 2.70767 20.9138 -14.042 13.7219 11.692 
7.09401 -11.3761 11.1913 -19.9899 -5.58677 -4.48295 8.43735 4.91604 23.2068 
-7.36699 -2.77501 -0.0618598 -10.836 15.7892 6.10169 13.7384 0.451842 15.7403 
-1.00578 -2.08475 -4.83914 8.34822 16.0219 -3.26899 12.257 -5.67769 -5.28562 
-7.14546 14.091 6.7057 -1.27752 16.6681 -14.7619 4.30867 7.66923 21.0119 
15.8279 4.70257 -12.6741 -11.6623 8.54788 4.81144 8.53306 7.91018 5.43246 
12.4848 5.41973 -15.9567 -1.64152 27.0077 -7.92375 -16.0529 -4.75465 17.2656 
-0.218378 -4.1818 -9.46093 16.0717 5.53936 19.5266 -5.72459 22.9903 -6.13468 
-18.1103 4.67367 -3.27132 -22.8206 15.2807 17.6828 1.21526 9.86011 -17.6915 
14.01 5.26217 0.333095 -0.817202 -7.07608 -3.5794 14.6256 -3.40654 -5.04942 
-12.4744 11.7485 -4.43093 -0.885204 -1.57992 13.5611 9.0077 13.8132 -15.0585 
-0.57775 7.56475 5.70331 -6.83685 1.43826 -5.46413 17.7899 7.44549 4.28305 
3.01285 -1.29655 15.0724 -21.359 -1.07649 1.54133 17.5849 10.3406 -10.622 
-6.53432 18.2021 5.6383 4.9204 16.4212 -6.89369 -22.2646 9.27716 -2.6134 
7.90811 19.9961 14.4929 -11.0765 2.91063 -7.65982 10.567 16.5272 17.4133 
-7.15977 4.49766 11.9225 -21.4801 2.19316 -10.2106 7.21991 -7.92208 5.35159 
5.80965 -0.509687 -16.9239 -3.10544 18.0389 -8.65592 -4.91101 -5.20241 11.5714 
-1.40951 23.1069 1.88711 -9.27668 -0.254581 -6.90126 -5.68419 27.5036 9.53793 
-11.5641 -9.86156 19.0235 9.81979 4.37045 27.4276 3.22417 24.5887 0.779219 
-17.0373 20.024 4.1574 14.0912 -2.8623 5.60539 3.86591 -6.99009 15.8475 
-1.61378 -3.15605 -2.53521 -11.1338 10.313 22.2461 0.483728 -8.79607 13.9512 
-4.67378 16.4051 -11.366 -10.4499 -2.41658 18.3771 -12.86 -9.07467 -9.09577 
11.2284 17.5994 7.7153 21.5333 -6.18327 -2.55291 11.6934 8.41405 0.865399 
-10.3646 -2.11783 9.71505 12.4421 -4.4029 -5.49009 7.45529 18.1791 7.92786 
-3.28288 -14.0576 -8.5116 -10.9416 5.50862 11.7644 -31.3796 -3.49683 1.96036 
8.83834 3.04111 -12.295 -8.58687 13.4767 -1.89226 -2.12229 8.11204 19.7977 
11.756 3.16374 -9.31151 4.7252 -7.4171 14.4029 -7.63607 9.89777 1.74171 
5.219 -7.651 -12.8249 21.0254 12.9653 3.52889 -0.647641 18.038 18.1642 
-1.87522 23.5985 0.753816 -14.4027 1.57232 -0.775826 9.9872 5.78969 -6.47125 
-2.07769 -9.85697 20.811 23.9884 6.01494 9.05357 -11.2288 7.14842 -3.53571 
1.69461 -6.26239 17.5799 -30.1576 -1.92137 8.92955 12.922 4.07009 16.2512 
2.14396 4.79925 -6.5537 -10.3865 8.74151 16.4936 12.3121 -11.241 14.5724 
6.16936 -0.717619 20.847 -0.582511 -3.78435 -5.35914 0.68838 4.29657 31.3037 
15.124 -3.64208 18.4403 0.80971 6.00256 -2.85202 5.3361 15.7493 18.3542 
-16.2124 8.73944 10.0605 -7.63094 10.6474 2.97331 10.3051 0.508288 19.6472 
9.97195 11.1862 -9.88145 9.16271 -10.1674 -0.860829 9.15044 25.3181 7.51154 
-16.1437 2.57466 16.0199 -1.26473 -0.78319 -10.7145 15.3379 -9.8706 11.1892 
-19.1705 6.00845 14.931 14.7452 -2.78482 -1.18277 -7.81731 5.689 26.4078 
0.0428943 -12.5781 13.8421 2.4414 13.3231 -17.1761 -6.77555 -10.9755 -10.8227 
17.4237 11.0554 3.25229 -15.5418 0.798323 1.63114 5.29486 -1.73341 -5.52919 
-0.505404 -18.8025 9.0776 11.6007 -17.827 4.94785 16.6734 -11.6318 9.84423 
1.3066 -9.32935 -9.62741 -3.22205 -3.69901 -14.0056 6.37119 9.67937 5.36662 
10.5207 17.311 20.6737 11.9101 7.54491 -8.89155 -17.9547 8.02524 14.1262 
3.83928 1.88803 9.3561 12.0193 -9.43586 -10.7512 -1.01463 1.01447 11.1348 
-13.6852 8.90772 4.68567 11.22 -10.4557 -9.19841 23.8083 14.0515 16.482 
6.20373 -6.35623 4.95647 -2.46005 0.771485 16.5963 12.3725 -4.63567 -7.76295 
8.63784 2.85196 -0.0741626 -8.88958 1.55564 17.7661 10.9716 -0.734677 -10.7119 
33.6316 2.72562 7.74239 29.0951 6.86766 6.68049 17.6018 -5.13211 19.4736 
11.3136 23.4039 13.2329 16.0897 1.02153 21.5428 5.38651 -21.7537 9.80451 
6.94522 -9.9567 -10.5861 1.54454 -0.526099 1.6819 10.7178 -4.13705 -12.505 
7.32925 -3.10239 -10.5062 1.87803 -7.19671 -2.01764 4.23609 -21.4502 0.681175 
7.5448 -3.59087 -13.4779 11.3569 17.171 -4.06125 7.31188 -13.7046 -2.74931 
16.8444 0.0336741 -14.7175 0.417194 17.1424 -2.51013 19.5982 7.73204 22.6559 
7.53423 2.27563 -14.451 11.1222 2.09296 -14.2213 -3.55783 10.4439 15.1258 
6.07938 16.6864 -11.378 -12.9324 -3.87448 19.4244 -2.5381 -12.269 2.42521 
-0.97323 17.3752 15.0645 5.73846 9.97622 16.2614 0.000443331 -8.55606 11.1645 
-13.4024 -6.59365 16.8309 -3.29688 0.816032 20.9953 -6.96722 4.29903 3.96288 
19.5071 10.087 20.5026 7.72888 16.9956 13.0101 23.4286 -8.3752 12.9755 
8.44017 -23.1171 11.3761 0.333034 0.187884 -4.32138 -5.03041 0.345137 8.51685 
-10.6493 0.779446 -2.5693 21.7994 -7.76734 -1.18765 13.9698 3.89397 23.7087 
10.4591 3.64652 -8.78136 19.3863 3.09269 21.2231 9.06565 2.95666 -3.52787 
-9.36373 3.67546 19.0241 12.1449 -8.93997 20.7739 -3.02461 -1.12249 9.21807 
10.5614 22.1885 -3.42458 16.2896 9.29316 24.4521 1.84157 1.64795 0.10194 
-5.80694 9.73145 19.6033 4.80422 16.4402 17.1831 16.7303 -9.80206 13.8144 
-6.25241 -4.35292 -9.07614 20.4471 14.5227 25.7103 -12.0459 9.40101 6.11571 
-1.59535 -14.3309 13.2793 3.80156 20.6772 16.9214 19.4417 -5.38699 -6.51845 
6.09869 -18.5426 2.5036 2.89607 18.3149 3.48034 26.9917 13.4515 0.0707029 
7.98516 17.7946 -10.7341 14.4089 10.0503 22.1056 25.522 2.93975 -3.88385 
[...]
CELL_DATA 2484
SCALARS scalars double
LOOKUP_TABLE default
-3.1475026324 -7.215191026 -9.142675639 -4.1953225536 4.5528446528 9.0044365561 2.0310815142 -0.528778216 0.94021766264 
-6.0569224073 -1.1293641906 -2.6067248653 2.7282359446 8.4650115453 -3.2408978698 -1.6996916736 -4.3137250722 5.8991480416 
2.57032897 -8.6947769517 -0.27849259014 2.8186899047 -0.97529981344 -9.2818027599 -7.1693642681 9.7959608533 7.4338877643 
-9.1887357127 9.9991472601 9.852056326 9.7591360255 -9.8325172985 -9.9996901762 9.7228136021 -9.9947386772 9.9957494971 
4.6158049726 6.7981388992 -9.2393763978 6.8518671067 -6.8065348525 9.6731272711 4.2531491653 -6.9356723902 0.065326647509 
2.9091215387 9.3487154594 -4.5023725197 -4.4251727741 9.8542756256 -5.8708164504 -7.4970842925 8.0210294108 -1.8747957639 
2.3548727447 -4.41096935 -3.0803049085 5.666053677 -0.67336776324 -6.2168445189 3.0420070296 7.6326346378 -6.3192861063 
9.4631590724 6.8145075285 -5.5056010569 -8.5164853929 -6.6859296258 -3.7503918822 -8.7039021859 6.08287506 -4.2395564147 
9.9948019161 -4.5083367663 3.3373902473 -6.7365735112 -9.666353961 8.1748082887 -5.8581266457 8.4280246945 0.84422590016 
-0.18962293658 -8.0511303084 9.5329713061 -5.6478546701 4.2506179529 -4.7603351404 -9.8797615076 3.6508736154 -9.8353712487 
9.8861522091 -7.5553531435 -9.5443101414 4.7853506034 7.5833205046 7.9921646295 3.9446843617 -9.4892768148 9.9199597567 
6.1725419702 -4.2387513064 1.2261573698 -5.1965812925 9.8434736487 9.8589473859 -9.8442052771 -3.0289546793 -9.8592189548 
6.9742860797 -9.5165362222 -9.0839829805 9.4421276984 1.3539853639 -1.0162845811 7.5077474284 -4.6543287731 -9.6550121215 
0.30706504373 4.0869478969 5.4981611516 7.5999874396 9.8404688704 9.9395294282 -9.7627607523 3.5238942608 7.7962027929 
0.57263858535 -8.2674027049 4.9354225727 -3.2259531659 -5.0180484381 6.4901563124 1.0317337093 8.635089918 2.1933642502 
-8.767952934 3.5176730868 4.3175395444 -4.0610200146 -4.0478698672 -0.23446565152 -7.8603983255 6.9189675849 -0.15407602503 
3.4101216864 5.7636865208 -0.44445086091 4.7521268909 2.451920901 -8.2963436884 4.6977279047 -1.3206673139 0.83154855991 
-9.0188812559 8.9087177686 3.1347700854 2.3844559554 9.2585868565 6.5855523629 -2.7151292061 -0.44760479723 -0.44374860822 
-9.2930635997 -8.8628282613 -8.4655214605 -1.4954493759 -5.7709829974 -0.75919485876 1.4790846085 4.7818234798 -1.9942451102 
-3.9343010685 8.9775305714 -1.4801483603 0.31585628136 -8.0048248195 9.9183122599 -1.5918655161 8.0548887721 -1.0258953453 
-1.7575335307 -9.8657134285 -2.493364149 -5.7779532589 -8.3854745505 5.9327106558 -9.6325278001 -7.9979010354 -2.5585459285 
9.5334146984 4.3093865478 0.36810945194 -5.5993323039 -2.5920691988 7.5611224991 -6.8587098913 9.953567781 -9.8769658368 
-3.3117224114 -0.25851754708 -3.382192722 -0.021876756969 2.8188817573 3.2955133842 7.8246420062 -2.8618252304 4.4298984175 
6.4467186042 -1.1929990801 3.2579701017 -3.6523873573 -0.17561350593 -7.366473667 4.2839527437 6.9158194486 5.192582315 
6.200308179 5.5312710793 1.8319334905 -4.9773531221 9.0201518384 1.2093807151 6.7298870004 -8.4647223905 -0.15272039425 
5.5802193624 -9.0566913583 -6.3553976898 -5.5657204089 -9.5930283857 -9.9226265146 4.6811472958 5.5667367577 -0.69786611804 
0.45915460533 8.2872166583 8.2476797515 -7.161194047 -2.2820504571 8.6613105873 5.2161007698 -4.4054047305 -2.9947819469 
2.6849499472 0.11855753212 3.0733671744 -3.2955453989 -8.5936099948 -3.7030796119 6.1477120044 -5.0028925689 -7.55476496 
5.6434726161 5.1313383397 7.5287453386 0.85032320802 1.7777978469 7.1865215174 -7.1918359519 -9.0846024097 -6.5131356423 
7.2208989589 2.7725371097 -1.1736902808 -2.2678058574 1.3090010317 6.8825367924 0.96834457187 6.0228831385 -9.8038306785 
-0.046537013462 7.092049316 5.7739286715 -7.7911181667 -7.5178604462 9.2339141247 -2.1624298992 0.74349300481 -0.63158435147 
-3.2246393084 -8.4483174619 -4.0563550676 -3.9260422222 -8.9069868182 -7.9916265577 6.2820339555 7.4005812997 5.4164883055 
-5.2939864452 -5.856819597 9.2626416017 1.7439608889 -7.3130323777 -8.191151953 3.7086050945 6.1428610645 -3.7513495153 
2.1154102422 -0.0021263171142 -6.7654261265 9.1105680724 -1.949904631 -7.3260359192 -0.99674450511 -0.9888272888 0.93529626735 
4.0496356177 -5.7361018122 -8.6824574709 8.3341745307 6.8174463587 4.8896722239 -7.2085961789 -9.9958109567 5.9477126394 
-7.8802363266 8.5890268486 -7.3284513875 7.5199887328 6.6909989968 5.8358674923 -8.7652195413 7.9054929108 -9.712291156 
-9.6045210878 9.3645938026 9.1993951411 -8.7536294851 -3.8814131157 -8.8261199207 8.0769055237 9.6917928226 7.8743238979 
9.7090651576 -9.9443211504 -9.8574437296 3.0901726208 -5.7661887888 1.3503251538 -8.9817921895 4.3367281199 1.541454782 
5.1421365474 2.1857491105 -5.2178471601 -7.5027554285 4.193995124 -3.400553889 8.2911018024 -9.1027371006 5.2786862263 
-3.3552874388 -3.6893109325 -9.4176021483 -4.32694703 9.7263464176 9.4023303277 -9.3734731082 -6.5358791455 2.295264122 
6.0157283782 -2.1065151796 -7.9834832518 3.1455319817 3.2132030806 6.2459067912 6.849858004 -0.36236564515 -9.3799858832 
2.1194890291 -2.4822229945 -9.3798160862 -7.1728204188 3.0115594063 -8.5580970991 -9.9740555194 -9.09038485 9.6517508906 
8.8870611248 9.4768218943 9.4822723047 -9.0476181882 7.2464804653 -2.595431506 -3.2723437674 -1.385548874 2.2071979166 
6.1367504924 0.58206891502 -3.5172011203 -9.9143074737 0.25172556276 7.6754395544 2.0359258837 5.0205003601 5.0211616081 
-1.2222451407 -6.4296594361 -7.7754579789 -4.4429630282 8.6259080367 7.5160574249 3.716811275 -4.8443122583 -4.4864291081 
3.2442171529 3.5584825481 -4.1336728522 -9.2846002308 2.3499232078 4.761976837 -1.3187872269 2.722283601 -5.4615571828 
-0.51103447482 7.13430387 -4.7945077336 6.5743991283 -0.88546244629 0.44724730399 -3.3033318712 -1.357605864 -0.68119481877 
9.9406445613 1.2632321075 -0.04029685954 -6.3568245233 5.2722801521 -0.88575760779 -5.8045534594 -0.13552936427 -0.016068736775 
-9.4995079474 -4.4053295513 4.3639387967 -0.061853584485 4.1750631993 7.4801618843 7.6624935443 -9.9470973882 -7.9472781738 
9.9548325341 -9.9824082021 -9.9149647832 -7.6318413576 9.9966798405 9.9763664275 -3.4749809322 3.984356496 -4.1683860985 
-0.35175424319 -6.1214365756 5.0121380967 -5.7955495404 9.4498974374 -9.9788031163 -8.3638591009 9.3223865441 -0.75036785328 
-3.641017622 -8.6466324307 3.9285519685 4.0696947226 -8.0622130244 2.6015757083 -3.6331469454 -4.4955252951 4.8242695922 
-1.3725575809 -4.72855738 7.1979671573 -7.0303976045 1.4887702036 0.91876126662 -7.8592489672 -0.72461250898 1.8043604251 
-8.3892774201 1.4232139962 -6.9863522469 9.2444951788 3.8423340165 3.0392175669 2.1281270042 -0.090623125432 5.8562963833 
0.44773559586 2.1543320109 7.8908376965 5.7532859003 9.7668928702 -9.8363217281 -6.4349655526 2.7207336218 0.87288714478 
-0.14320106362 6.9896941286 -8.8960100015 4.6173219568 -1.2441692221 0.012585063045 9.3448892394 -0.56023552553 2.7733866978 
-9.2704330955 5.8963977252 8.9222387198 -5.7755793831 -4.5793221049 9.7272358203 -4.996433573 -9.8913356744 9.4996997226 
-8.4662324236 0.42206737599 -1.9683756541 6.9288058657 9.8777318705 -9.9022320173 9.7206854053 5.0517777198 -9.7177929666 
-1.4485545335 -3.3748795632 9.9643809685 -2.9731004988 3.7600076755 -9.5670604431 0.43509166314 5.4391537587 -4.6715260724 
5.8074520893 -8.6647197012 5.2001769858 -0.53775754497 -9.8660385327 0.73588335851 4.814946171 1.6623686282 -0.9369910584 
-8.6944726234 3.7879932358 2.608709271 9.4036700896 -5.9392602466 2.7888566911 1.3524445127 -7.8368206731 3.0698730133 
3.9050811481 1.1740713607 2.0252893474 8.2730862525 -6.446492206 -9.3157697941 8.3516542124 -9.4772186675 9.8679255508 
-4.5371215805 -8.3457120462 1.1760011066 -5.0127102751 6.7208557486 1.3962306816 -5.0772852292 3.5230635899 1.9531959526 
1.0858865396 5.5290088732 -7.8149142973 -0.54936574333 8.5307736411 8.8658364546 1.7258423237 -0.17585329325 -6.7834086241 
-9.53725893 -6.6350443744 -1.4674898436 -2.6165852067 7.8106378382 1.7546449127 1.4757417909 2.093922614 1.3794021149 
-2.374702021 2.8513062243 -7.9435265912 1.5862062202 -0.9960980335 -8.454141943 -8.6407276846 -4.1547271799 1.8231308178 
1.7178908106 9.0313606349 5.7493424951 -0.17572227195 -0.37084121554 -5.9607587962 1.1456082551 4.8553875539 -5.2615065208 
0.1127965188 6.5790743849 -8.373649393 9.2162251816 8.6407766131 6.4468750097 -2.7344364468 -1.7155813621 -5.2794862157 
2.7945619862 -1.5413248182 6.3726062883 1.3452994534 -3.2964539444 -3.3406910946 -8.9210218949 3.3723271587 -2.8422933048 
-6.1433017406 1.616384051 -3.8700210262 4.4796410575 -1.7906281186 8.5305308284 -4.4767314711 -6.9985037617 -7.1581005422 
-5.680518153 -8.2125080755 -2.8350554103 7.3218015508 4.1394094041 -2.6640351488 5.5860720919 -7.7262842952 4.1616531768 
1.077173756 7.5012764249 -0.02415636961 7.8705285653 -3.691489085 8.6314570911 -2.7211526021 -2.1140207206 -5.2253655367 
8.1603295332 8.6806016149 -6.2336276014 -8.0903670822 8.965652697 9.8367356211 1.7396978805 -9.7738506025 0.23639038867 
-7.1371922151 2.3761394586 -3.5626875615 -9.8282780354 4.69654661 8.6568405456 -8.166723087 8.9917663603 -2.9849444175 
-0.55120557241 -0.5047404499 -6.2400575606 8.9632395825 7.5126741988 -7.6883188622 7.6938060982 9.3237352234 3.4634213666 
-9.5148647679 -4.7845844558 -5.3525894278 6.4007922564 0.089319125956 -4.7231113916 -6.1154140481 -2.4970011167 5.3070667474 
4.0155265736 2.1619139359 -5.1878705139 -2.8228078475 0.27702782034 8.3554095728 8.2057133983 9.9949658546 -6.4349160497 
0.93923331423 -1.6773334827 -2.1681041418 -2.9555282051 9.6770280111 -5.7077389531 3.8720000457 -6.7292394246 -8.33846861 
-4.9873404099 5.32336099 -8.3375454462 -7.7735225909 9.9769716018 9.0816000025 -3.2452008927 -4.499421428 8.187232433 
1.1362832093 4.0387998196 0.2934404917 -6.9273509192 3.2614410109 -2.3569422795 -3.8515403761 4.3713706798 1.0947717099 
-2.1330015059 4.3822698423 -2.2187962233 -7.37747991 -3.535287038 0.1918801061 -6.1498425514 0.72735139338 9.2966682886 
-4.1536482095 1.8753181847 -6.3329653764 6.6503202456 -0.10283652798 -1.1185454415 -7.1882016783 -7.5657477398 9.8078308713 
2.9382558363 -9.0252772462 8.0108980169 -1.1176756088 -8.3065970857 1.7777410581 -0.42906939286 -9.9984442907 -6.134296032 
1.0976998206 3.213947038 7.8880324117 -2.3636622404 5.1738977049 -6.8624051987 6.7986670708 0.33990226095 -2.9011501598 
9.4471897299 -6.5165562294 3.2965222087 8.7504466722 4.998397018 -1.5362639596 -6.0440687657 -0.95286599104 -5.6746525477 
3.0117600439 2.5502535454 7.4023598118 8.9567878867 -6.372676557 -0.037364191049 -0.4699714266 7.7714808769 5.7743322682 
-3.7594753791 -5.9431606656 -9.3364561011 1.3926577496 0.066908915141 5.4063724171 -8.2030895788 3.5199461504 9.2892915748 
-3.4586031523 2.6527963331 9.7858274926 6.4257706699 -4.9254477744 8.4200698457 9.8841511197 9.3405566546 -9.5243293576 
-8.6757485683 -9.385172075 -5.8711562911 8.8221461815 6.4413316325 -0.86787138149 3.7194278015 -0.52477624923 1.2416962328 
-9.7785032682 3.521846207 -2.1165986517 9.6402176597 8.6448786769 -5.8128026314 -9.5887724031 -1.2637523391 -9.2121172122 
-3.319486636 4.1006709719 8.1116809231 8.2836969157 -8.4687663998 -7.9476391752 -5.0352154473 1.3277519363 5.4190688343 
-0.9014736738 -4.425402684 3.4286924958 8.840961994 -1.7930017579 -6.4319345518 2.0555893792 -7.7181209238 7.099402955 
3.5569914927 -6.0160630216 5.0192915181 -5.5463932311 -3.9993587242 -4.6969368584 0.93858985996 -0.27226389842 -3.419883534 
4.5635882992 5.4889849974 -0.1159166581 1.0239859987 -7.8702541748 8.7059594683 -4.8112401171 -1.2699771937 -1.8961776955 
6.1809001322 -2.0802542741 -6.7525857145 -3.9908601447 3.577207563 -9.0187826531 5.2903438479 -5.0423752989 -2.3975145001 
5.9115550543 -3.0785283913 -1.1863185283 -3.4782023547 1.0440404006 3.1877216212 2.4388005108 2.732974436 -2.9540732364 
7.2764306151 3.5730614316 4.4610055428 -6.6793680541 7.4713876095 -4.312448528 -3.7217270088 -3.8134733891 2.7408356982 
5.487921906 -3.0350230824 1.3600614879 6.7057987414 3.6690103911 -4.0335015141 -0.86385994665 -3.9428387091 7.3648589394 
3.9561918656 -4.1507539526 7.3736263175 7.8985291504 -0.7056265411 3.9773536295 5.4392485147 6.1065813632 -8.7732696761 
5.8288992197 8.8926113815 -4.0105138172 -5.719559705 7.5532524743 -8.1889524839 -0.13803077143 -6.5327626872 0.88060445262 
-4.231581681 4.1146925103 5.3279591452 -1.9015362295 2.4757919766 0.73400260971 -7.8976973041 -2.0541095044 3.7619773077 
3.1526860124 0.38195211539 0.80437492933 -5.6773690279 -6.9383394366 0.4853851091 3.4630938052 0.15821164574 -2.2795388984 
-6.0774405569 6.0042816347 -0.44816250893 3.1368555164 -0.34101867476 -7.0273782105 -0.15886120797 5.910294024 -4.2680897244 
2.9328211323 -3.5163936539 5.035881152 1.5815364531 5.4039149277 0.1578503724 0.21731508467 7.8896278314 -0.41895439389 
1.9851145412 -1.0363032656 -0.19530803552 2.2962777692 4.0715396152 1.08737841 8.001159223 -5.4299418286 -4.7309770912 
8.4264110067 2.7208240512 -6.0854477171 -8.6664635127 0.6308663257 -2.7584911649 5.6723460834 -3.3039348115 -0.8231627467 
-9.1443356579 6.3369798581 -0.67883079571 -8.5535250865 -1.580418197 5.5284176312 -0.2252418942 -7.604869463 -3.7218972852 
5.269115869 -6.6681085463 7.973033394 -8.7066915149 8.5585710498 9.7262701328 0.27908052208 3.1232859474 5.4422734317 
6.7031674976 -6.9952214906 1.1836418905 -2.1738654071 7.3751365948 0.8216713737 -7.5900904574 -0.59103926461 1.1297732894 
-0.5331774861 1.1901519216 -0.26185514148 -7.5617558719 -0.23641319662 -4.3806201123 1.1430954224 3.2872492503 -3.4198409901 
-6.2346495658 1.7088184429 -6.7671149671 8.6659631439 -4.566947262 1.2627184826 0.41573994999 -0.8461666986 0.44425978503 
-3.0744531701 -8.1893457756 8.3482312186 -2.6849661888 -1.5927405799 3.0165905899 0.082081848955 4.6854708147 -1.7109111603 
-6.0452776075 6.6786330662 -0.3851963943 -6.3571730168 -1.1053924973 -1.2543711896 3.0115289498 -1.3350413247 5.9943222239 
-1.3986608931 2.9234848143 2.0901783811 0.12428629294 -3.8894618447 -9.1437948151 -6.8272234567 -7.4002292374 6.6120363816 
-0.65750738267 -5.7362057671 1.4027483578 -3.3469157994 9.1605341363 -3.2687148413 5.4947706608 -6.1419368008 -1.8685638227 
1.5241739018 9.056270876 -0.87124576951 5.4584682015 -7.1735552282 -0.45671068443 -4.2161628863 -1.8255527193 -3.3360977634 
4.0071055143 1.9870213009 0.086051022765 -5.1174340014 5.8460120583 -1.3054759117 2.0317794614 5.5181445715 -0.57050715391 
-0.085306317753 -5.1586905753 0.61609932424 4.7502003517 1.3558750699 -8.3735601553 -9.4942475648 0.17533317714 7.8478116577 
-5.0985702867 0.66422225971 -5.1023759953 -0.13160406817 7.9178288076 4.1804797216 -1.815358237 -3.9553818118 2.1914755766 
-8.4043395205 9.5536239027 -4.0016490451 -6.4111800179 0.1259731373 -0.1600676574 -3.3530382265 -7.0326477962 2.7428183718 
4.4253378168 -2.5141177837 5.4279960075 7.073531424 8.5914523577 2.4404088361 -2.0990412206 -3.8750294923 -5.479116654 
7.264466803 6.4662969402 7.4779290941 2.448910726 -2.6927410679 -3.3348404699 -6.3590090372 8.6385294444 1.7802316033 
-4.7832544411 -3.3608954292 -9.7883933737 4.5627900932 4.9477735477 -6.3813755306 2.8599858259 1.2181494253 4.8220566373 
1.1768134374 -2.2288797726 -3.0911449055 -6.20272164 5.1843872935 0.14615311538 -2.4633678328 -1.1511737389 9.9383175978 
5.6460300563 -5.5484917407 -1.8515093351 -4.3513494113 5.8642967898 1.7126428764 3.6650508122 -0.33818882246 -4.2790093918 
-7.2547392645 5.3151284416 3.0518796161 -0.37388778519 -3.5859993242 2.1393625178 -6.7495044314 3.0485338849 -0.18235238068 
-2.6450754273 -4.1061160569 6.9323759034 7.2851988461 -3.2714908562 8.429029863 -6.345710276 1.4421516579 5.9221885082 
3.3860677014 9.1127356842 -4.70065717 -4.5706265905 -9.5689097065 -3.2483541769 4.3366639112 0.74911516741 -6.6969860091 
-4.4774504222 9.8662310169 -3.3203219857 0.12656401952 8.0743506042 -7.1469129491 -2.2600672469 3.6144251271 -0.12292489218 
5.8267092905 0.35273866671 5.0686375062 4.8152521423 -7.1490775842 6.755351157 2.6694939108 2.9912972439 -4.3730193856 
-7.0336579922 3.0025215562 0.32714967039 -3.1527142441 -7.1320254218 -4.5972092137 -5.1685291842 6.7154532803 6.0353062651 
1.6080972736 1.9160946869 -9.9954980477 -3.7617118321 -0.048288928662 -0.86469497031 6.0108258025 -1.8634522755 0.40319968836 
-8.420995902 8.1993842833 -8.848418479 -2.8757406143 -2.630984966 9.213757571 7.3206701432 8.7307872045 -2.1209202656 
-9.2153452409 1.3708436676 -5.1091591418 -8.1929668758 4.4321439223 -1.8351697961 -5.3951301318 0.59064120781 3.669454252 
4.4963869699 2.9900052102 0.50888590027 -4.4298139017 2.4897609868 0.34418349706 -6.0881958373 1.3495745174 -9.6281654764 
0.31846866193 2.5272224209 6.632882822 1.4043415383 -0.98451497209 8.8902947733 1.4889207526 -8.7282259868 1.3142828156 
8.0474961168 0.70857323572 3.2450736935 1.4016250756 -0.12286849376 -1.8168520235 -1.3181100676 0.084002001969 -0.40442274148 
-1.7222034112 0.47694118483 2.6498441249 -1.6386831187 4.6902694822 4.7801082872 -4.2901300629 1.3938722038 -5.1747212715 
9.3835204011 7.9456268677 -9.2880413532 3.9327708453 -8.8548045656 -2.9116897512 3.6611209637 -7.3278226564 1.7466105336 
5.1221578168 -1.4774742419 -7.2880179259 5.1730423819 -4.1802775701 6.2689622947 -0.090390167786 -9.7431274128 -5.2267310965 
4.3162320638 9.8954550522 -3.6587793535 1.2461003615 -1.8944365892 8.1910700675 6.4275899231 2.1426106689 -7.3849884506 
3.6866651898 1.0490239415 0.32278346236 1.0450347484 0.23152782937 -1.39577285 -2.0571788291 -2.2343098442 2.2329322431 
-6.0205910372 1.5982155966 0.030783225169 -8.7346871687 7.5093674542 -0.10524534893 -5.6518651532 -0.82033833611 6.8521931451 
-7.894046048 2.6804873048 -3.9497620977 7.5075034345 0.92391576169 5.3712166488 -7.253000906 5.5944243727 1.0624369521 
6.2911470366 -4.9049767187 0.80405800701 -0.5989480863 -8.1737515885 -6.9809251569 5.6009841863 1.716639748 1.7501407597 
-3.8607728162 5.7523816917 7.7150738072 0.5480042637 7.805913915 -9.4808501204 -4.0143395084 -8.1902829346 8.3809107724 
-3.0226836821 2.7612109634 9.9419972067 -3.1013729822 -1.3062845059 -0.80175336451 3.7014148225 -1.4606167365 7.5793465057 
4.3197939309 -6.9699023703 -5.3709104502 -7.2554338533 4.5415493109 5.0866925717 -0.92947268234 -2.6874736063 -2.7473747915 
2.5365125847 -6.7008525771 4.768462 5.6775889305 8.132901118 4.2902545568 4.5857668372 -3.9981517096 3.4361208195 
-4.3933781593 1.9953762216 -5.2655335222 -3.2065903807 -3.4279485483 2.9694271062 3.0346965503 -4.974297733 -1.5373372764 
-5.9050663294 4.2241893642 4.2386933419 -1.5387684386 9.1338055571 2.0725496492 5.6756371606 -0.93439613142 7.2896023612 
5.3154262388 1.5106298417 -6.728913387 -5.8393485861 1.8190446569 -6.9604965257 -1.9927009782 7.0006009099 5.6518631313 
-5.8960672385 -4.8581794385 -1.5447911842 -1.8827502814 7.4559929893 5.1357173448 -1.7379401363 2.0806038447 -6.7149269631 
6.2384052059 5.8470214933 -0.68578245801 2.3633181588 3.3716539552 -8.2927563139 9.9586943264 -6.4721401108 -4.0887749643 
-4.3720362952 1.4134170881 8.2297817434 1.096315144 -8.4522967867 -4.4776548977 5.4434632011 -9.7942662388 3.6180371422 
-3.2198727675 -4.5396193597 3.0394584146 -3.8402221493 -0.85086039963 -4.9431463739 3.4148587675 -0.30015066976 -3.5412932445 
3.0745290965 2.0439657983 4.4667085468 0.53121498109 -1.2834477914 -0.91601192951 0.42012479164 -1.6181960015 -3.3272639518 
9.6238261891 5.1876168024 -6.6707858165 2.1107084296 5.040123615 -7.1218090434 -7.1976614441 -4.9959975355 1.3502359934 
0.55837677785 -9.4542754577 0.71089826385 -8.9730139325 5.4804623275 -0.36975696171 -6.0620657448 2.7379764611 -8.6837044415 
7.6789595719 9.644609 6.7756398076 0.90584803581 -7.3558235486 -6.9387753187 -9.7151390791 7.2129324705 6.7652658114 
-4.3354921073 -5.4528387933 -5.8354776674 6.9427821187 -2.992343408 4.3248453035 -4.0794563474 1.372529578 9.2528705188 
-5.8025325536 2.4633720709 -4.6212589444 2.3889520945 5.3833049264 -2.0789756998 0.36124540837 7.844226967 -3.5076263735 