# vtk DataFile Version 5.1
vtk output
ASCII
DATASET POLYDATA
POINTS 1244 float
-14.4901 -8.05441 -5.96326 3.70891 6.43355 -17.8462 -1.65845 -12.8884 -3.39715 
6.57079 8.53794 -6.86177 -12.2008 0.000713359 -0.7081 -9.95407 1.35322 1.9109 
-6.5035 -7.22244 5.44667 0.662647 -3.16078 3.02181 -9.93639 -9.38831 25.6686 
-24.5089 -24.9998 2.63716 -25.7088 -1.05992 -5.37974 -22.5977 -22.4779 4.28055 
10.9774 11.7225 5.14021 -20.7009 -25.1808 11.7726 -14.8552 -5.31767 22.7904 
-23.3781 -26.0028 5.14901 -15.3448 -11.3154 -12.3986 -12.711 19.1917 -16.9012 
-9.30714 -21.5034 -10.9288 -15.842 -1.51704 -15.0037 17.8664 5.05686 16.8814 
-20.6335 4.03967 -20.538 17.9122 0.0153115 17.2878 -14.499 9.8679 -14.9362 
-9.48784 32.8536 -9.29058 -18.7365 -1.18507 -20.2714 -26.6093 13.7851 6.9829 
-22.2596 -4.65724 13.9609 -27.4181 -7.4106 -10.6164 -21.994 -26.7666 11.9475 
-41.8835 -4.28021 4.79607 -23.2951 -26.7272 -3.62697 -28.958 -11.7319 17.3681 
-19.6593 -5.22294 -6.06911 -24.3623 17.0983 21.4141 -27.3614 -0.448032 15.8074 
-29.1936 4.08945 -11.2427 -3.95387 9.16676 5.00818 -24.1204 10.7874 -22.0598 
-35.7397 5.46439 17.2786 -25.3857 -0.274626 -21.5577 0.232907 -5.15011 0.593122 
-24.9927 -5.86396 -4.09724 -24.8446 29.3324 4.48865 11.4311 -26.8994 0.00310481 
-4.53104 -22.8509 10.8618 -13.2278 -19.6887 -15.7944 -4.72856 -33.205 8.51509 
-32.4456 -30.0338 6.81201 -4.55144 -33.6214 -0.752666 -16.7308 -24.9235 21.3322 
-5.58688 -21.6129 -5.32032 10.0097 -25.0161 23.9101 14.8858 -5.26754 -28.4108 
-12.3553 8.19913 -26.9181 7.98887 4.31449 -7.1053 -20.0439 11.0463 -25.9432 
17.8627 5.44514 -35.4011 -20.6312 -0.115959 -26.3999 -0.178901 -3.34848 0.999685 
-0.622696 -6.17817 -25.3257 8.87059 28.9839 -20.7623 4.83767 6.90996 27.482 
-7.02745 -10.6 13.688 -15.6855 -11.9424 -4.01758 7.52783 7.49239 -7.93305 
-22.5527 -22.6346 4.47359 6.23686 6.19635 16.3184 -12.0668 -11.891 6.85203 
-0.337856 -0.488282 -9.37144 -3.91989 -1.4026 34.1943 1.35927 28.0493 0.315291 
-14.3818 7.61729 -14.6849 1.81525 4.18566 2.19047 -17.514 6.41266 -18.8996 
-2.2291 33.8699 -1.71511 -14.284 -8.58896 -14.7582 5.31444 4.31986 6.33429 
-7.36578 -12.1473 -7.68061 -0.462968 35.4313 -2.47779 12.1588 -19.949 -16.0908 
-19.9462 -1.60971 -10.4984 0.175042 -17.2206 -22.7699 25.6271 3.09877 -7.57182 
5.37144 -28.982 -14.1419 -16.9494 1.77215 -6.85979 7.63588 -21.4423 -22.9676 
26.2909 1.58249 -14.5761 2.40519 -22.5644 -15.2611 5.69641 -24.6939 -5.17448 
-2.67314 -23.1929 21.7214 10.611 -24.5883 -7.83461 13.4361 14.7654 11.398 
10.0674 -27.4363 -8.57364 13.4803 17.1422 12.3076 -1.26196 -20.9938 -7.01139 
-15.6886 -1.50374 -6.57319 10.859 -28.6627 9.54788 5.38352 14.402 -30.4118 
5.5425 -10.8888 -27.4703 -4.64552 10.5894 -6.55021 7.07444 -7.01504 -25.655 
5.39012 23.9693 19.2769 2.14218 -8.66778 -27.1901 15.456 10.7356 -6.70637 
-6.59876 -3.18218 -22.3207 28.9225 4.97292 -20.7249 18.7142 -9.92844 19.7586 
14.6775 -6.55506 -14.5273 5.52421 12.0947 3.39866 11.872 -15.9803 -16.548 
12.6753 -16.8861 20.6144 -6.646 -15.1147 -14.249 7.21579 12.372 3.52766 
-8.4937 -5.05831 -5.44076 34.2117 0.51509 -5.95457 1.67358 -13.653 5.51049 
-19.5138 1.74394 1.34983 -20.1414 11.671 -7.23111 -9.50096 -14.5839 5.00332 
-8.33336 12.6194 6.05369 0.626539 10.082 24.2886 -0.246907 10.6933 -5.04235 
-20.0443 -0.919708 20.4362 -17.3736 -0.483758 17.649 2.8274 -7.79666 -15.6224 
-22.1167 11.6216 1.63445 -20.6639 13.724 7.01258 3.08409 4.54218 -13.6471 
14.8536 14.9837 17.4298 5.4858 7.77307 3.768 -20.4822 -10.9096 -7.04065 
-3.19376 -12.7579 15.3638 0.458968 8.62316 9.22357 -21.3153 4.26281 17.461 
-0.480389 4.02159 -7.89412 25.7557 5.16085 9.57242 18.1832 8.04878 10.919 
2.16532 -4.82545 22.0415 6.70109 23.3384 13.764 -4.16248 -14.918 17.4532 
-9.1257 -13.4062 7.88614 -4.18165 -13.7777 -10.6987 -11.4324 0.415074 4.3057 
13.0962 3.2575 -3.70924 -9.69715 10.0659 20.1663 -3.49179 19.6571 5.97197 
-8.44629 -14.0623 -0.935088 -8.72998 -23.267 -2.08004 1.31579 21.0797 -0.478484 
-16.6553 2.1779 15.5861 17.7636 14.3712 -9.29995 -4.11187 18.6262 6.35906 
14.9661 12.3016 22.769 -3.70077 4.14911 -15.312 -18.5099 14.2689 -5.56317 
13.4147 6.66989 19.533 -6.66112 10.7572 -12.3842 -16.7623 -12.0099 14.233 
-11.9713 -16.1052 -6.96919 -5.02703 -6.26522 16.0155 3.83149 -15.753 3.28432 
-9.42994 -15.8887 12.7025 -10.6557 -13.9853 -4.04655 -16.1279 2.43841 15.4 
-17.394 5.7812 4.21455 9.73481 10.0916 20.9046 -6.66627 19.3241 4.28304 
-1.70714 -8.77308 6.91569 4.169 1.03528 -5.66413 -19.537 4.5904 14.1557 
-20.7235 2.90378 -2.82868 -1.08598 -16.9925 -10.3691 -4.4003 -4.67732 -5.63281 
3.50211 8.72878 21.7565 -0.053598 4.20682 -7.13648 10.7909 4.42227 22.84 
-0.469329 3.87055 -3.64963 -19.6293 8.63507 15.4115 2.06132 -10.2001 13.0924 
-14.7135 0.314204 10.8423 1.11089 10.5683 -8.7774 9.52812 6.6362 27.3772 
5.30326 23.4009 8.50152 -19.2336 2.42321 21.31 -14.3185 13.9077 11.5817 
7.30154 -11.4408 11.1898 -20.1234 -5.82111 -4.61044 8.36697 4.8681 23.2746 
-7.35617 -3.10299 -0.0909116 -11.0284 15.8759 6.15573 13.9516 0.775883 15.7232 
-1.09361 -2.1486 -4.87622 8.64069 16.4874 -3.95307 12.6695 -6.00309 -5.64969 
-7.02179 14.1001 6.58433 -1.16897 16.5633 -14.6169 4.74529 8.06246 21.6467 
15.9749 4.76068 -12.8152 -11.7955 9.01844 5.16985 8.86988 7.98703 5.63873 
12.1598 5.66177 -15.9612 -1.47027 26.8066 -8.15885 -16.3474 -4.96818 17.7143 
-0.334103 -4.25504 -9.45355 16.8735 5.55007 19.3866 -5.65816 23.5651 -6.36957 
-18.6573 4.27876 -3.48979 -23.0443 15.0654 17.6374 1.27169 9.93043 -17.9364 
15.109 5.11788 0.623277 -1.14889 -7.36044 -4.00386 14.8945 -3.43933 -5.17526 
-12.6243 12.0542 -4.58157 -0.905619 -1.65568 13.5434 8.8076 13.1399 -14.8541 
-0.844179 7.59226 5.21625 -6.87493 1.36509 -5.25396 18.805 7.78808 4.14389 
2.95044 -1.43657 15.5671 -21.3686 -0.899903 1.64942 18.0443 10.5338 -10.9202 
-6.78318 18.5149 5.67627 5.02249 16.5369 -6.96488 -22.5308 9.53787 -2.96042 
8.10057 19.8063 14.4814 -11.3447 2.73529 -7.77523 10.8366 16.8962 17.8539 
-7.16097 4.27949 12.2925 -21.5026 2.17286 -10.8263 7.15507 -8.08071 5.16224 
6.02269 -0.737664 -17.1762 -3.54026 18.6356 -9.35215 -4.82997 -5.62526 11.8892 
-1.29261 23.4831 1.94193 -9.38151 -0.281335 -7.23498 -5.69197 27.3754 9.87739 
-11.868 -10.1674 19.1991 10.1489 4.48657 27.7377 3.22534 25.172 0.647541 
-16.5914 19.983 4.13818 14.0889 -3.39687 5.85464 4.19458 -7.26283 15.7747 
-1.5985 -3.12659 -2.61175 -11.1054 10.6243 22.7283 0.560399 -8.83706 14.3383 
-4.74966 16.7806 -11.2918 -10.1998 -2.48771 18.1884 -13.0238 -9.36026 -9.27706 
11.0206 17.4423 7.68235 22.5684 -6.72455 -2.59706 11.6085 8.3635 1.04814 
-10.4044 -2.00715 9.81236 12.8966 -4.63884 -6.20366 7.10908 18.0457 7.96747 
-3.4909 -13.7717 -8.45987 -11.1233 5.71391 12.4065 -31.8463 -3.73574 1.96321 
9.5569 3.28994 -13.1723 -8.59005 14.0357 -2.1135 -2.24927 8.15247 20.0217 
12.1334 3.30042 -9.34506 4.91489 -7.54027 15.0951 -7.90757 10.1525 1.57 
5.28274 -7.69774 -12.7399 20.8761 13.2098 3.54669 -0.682312 18.2623 18.1333 
-2.05574 23.8008 0.629048 -14.592 1.75766 -0.951244 10.2015 6.00281 -6.52092 
-1.9026 -9.97555 20.8757 24.0035 6.19365 9.05055 -11.3939 7.26124 -3.30591 
1.82803 -6.45788 17.856 -30.5942 -1.96758 8.56634 13.2527 3.92406 16.262 
2.25767 4.93854 -6.84909 -10.4139 8.8112 16.7675 12.661 -11.3966 14.7119 
6.52864 -1.00855 21.2894 -0.443994 -3.82131 -5.54078 0.764422 4.59213 32.0619 
14.1418 -3.63813 18.1834 1.13485 6.17139 -2.94332 5.44921 15.9865 18.3155 
-16.5668 8.73457 9.80631 -7.75054 10.7016 2.96002 10.315 0.784346 19.9849 
10.4638 11.1239 -10.4746 9.62343 -10.2897 -1.10284 9.07549 25.2179 7.57931 
-16.7463 2.5573 16.4373 -1.12212 -0.859123 -10.9714 15.6769 -10.4666 11.2136 
-19.6686 6.19496 15.142 15.1068 -3.05671 -1.30525 -7.82082 6.2012 26.9616 
0.214215 -12.8536 13.9508 2.47743 13.7162 -17.4203 -6.95845 -11.1939 -11.3394 
17.9073 11.2215 3.32289 -16.1402 0.588866 1.80795 5.95577 -2.2012 -6.37024 
-0.446313 -18.1449 9.04086 11.3644 -17.9323 5.02379 17.0067 -11.7952 10.2765 
0.939709 -9.87798 -10.2518 -3.82054 -3.97892 -14.3601 6.20608 9.80003 4.89311 
10.4735 17.5568 20.8239 12.5606 7.42461 -9.49542 -18.0329 8.04089 14.2123 
3.46013 1.82474 9.31176 12.4662 -9.32747 -11.2484 -0.5843 0.781343 11.1164 
-13.8978 8.85339 4.96894 11.1597 -10.6817 -9.42078 23.9133 14.4089 16.5152 
6.26411 -6.46366 4.65249 -2.2119 0.488777 16.3769 12.4969 -4.61144 -7.82773 
8.63837 3.15991 0.114732 -8.97463 1.28196 17.5083 11.2796 -0.800694 -11.1485 
34.0262 2.73832 7.6325 29.815 6.88011 6.62271 17.3252 -4.66288 19.3588 
11.2419 23.1687 13.2172 16.4723 1.33808 21.9486 5.41362 -21.935 10.0071 
7.04597 -10.2563 -10.9657 1.55478 -0.864773 1.34216 10.7175 -4.31872 -13.0044 
7.54455 -3.35457 -10.9327 1.5198 -8.15694 -2.11873 4.3857 -21.9517 0.489063 
7.61736 -3.53348 -14.096 11.2814 16.8767 -3.86231 7.04071 -14.2882 -2.99766 
17.0188 -0.394585 -14.9082 0.451223 17.3316 -2.57216 20.2523 7.96139 23.0628 
7.19259 2.35385 -14.3425 11.0725 2.18566 -13.8654 -3.54231 10.7924 15.6725 
6.26953 17.2698 -11.8617 -13.0476 -3.8429 19.7048 -2.47684 -12.4939 2.32894 
-1.03095 17.651 15.0971 5.19534 11.1149 16.8553 -0.0933069 -8.76856 11.1307 
-13.3581 -6.65577 17.2326 -3.95459 0.821244 21.1241 -6.47723 4.21311 4.07574 
19.9132 10.2613 20.932 7.83323 17.3841 12.9266 23.4883 -8.42938 12.6528 
8.59175 -22.9507 11.3497 0.00292977 0.454464 -4.73543 -5.32853 0.470905 8.66251 
-10.8197 1.40398 -2.67017 22.483 -8.00137 -1.35258 13.9977 4.41533 24.8573 
10.4387 3.57112 -9.23844 19.929 3.21996 21.9209 8.83386 2.9398 -3.57144 
-9.65244 3.49934 19.0983 12.1972 -9.28895 21.0043 -3.35164 -1.00481 9.18441 
10.2705 22.2234 -3.5392 16.204 9.1601 24.6859 2.07077 1.298 -0.326209 
-6.52558 9.91011 20.3484 5.1052 16.4894 17.5205 16.7276 -10.3482 14.2542 
-6.98363 -4.53471 -10.3191 20.3644 14.6586 25.5146 -12.2905 9.53531 6.21702 
-1.72394 -13.9952 13.7656 3.59585 20.6737 17.0227 19.9656 -5.44712 -7.15967 
6.12091 -18.4598 2.15879 2.96009 17.7731 3.90206 27.487 13.4857 0.0204479 
8.15814 17.9884 -10.9546 14.3577 10.0734 22.0303 25.9684 2.71289 -3.50607 
[...]
CELL_DATA 2484
SCALARS scalars double
LOOKUP_TABLE default
-3.0519027638 -7.3316662868 -9.1155831579 -4.2466575083 4.4743538765 8.9839038004 2.0492833624 -0.37704580929 0.87780074335 
-5.9618961414 -1.1360831799 -2.5990686069 2.6551378038 8.4444798502 -3.1097041589 -1.8561928676 -4.3220819978 5.8746073622 
2.606421408 -8.6058168914 -0.51387027255 2.7765764351 -0.97195781298 -9.2683678286 -7.1069349046 9.7905542139 7.3594789954 
-9.1163743489 9.9979575687 9.8574683917 9.7562505933 -9.8362482824 -9.9997551704 9.7173845103 -9.9943968833 9.9957718251 
4.6485053945 6.7452750491 -9.2603600712 6.8791297731 -6.7160530748 9.681960007 4.1972207987 -6.9723155805 0.022806523149 
2.9437680383 9.3660125884 -4.4914048138 -4.3782862934 9.8386627348 -5.9419872277 -7.6756855081 8.0019365665 -1.83870421 
2.3332374487 -4.4375940855 -2.8666115064 5.6359828524 -0.76733718318 -6.2149184738 3.1168499721 7.5945949859 -6.3334540804 
9.4324031737 6.6834684054 -5.4115238138 -8.5648465427 -6.5173738374 -3.8272880978 -8.8770230432 6.159368072 -4.1848215284 
9.991550436 -4.5297734594 3.2272251864 -6.7692373702 -9.6778404561 8.2190222092 -5.8758482221 8.4880602401 0.94936615141 
-0.36498772148 -8.0693544869 9.5228442223 -5.5843453789 4.3615524847 -4.745987387 -9.8746688327 3.8323146751 -9.8297646115 
9.8748797261 -7.5102505031 -9.5356934942 4.6452205787 7.5608257206 7.9800783989 4.0221527262 -9.3827495006 9.9002503941 
6.030618265 -4.4169822633 1.2379989418 -5.2105237252 9.8433377263 9.8295119885 -9.827525834 -3.0926380617 -9.8529004819 
7.0123978852 -9.530219486 -9.080055819 9.4507978409 1.4018258964 -1.0150294141 7.4812656099 -4.694339609 -9.6694023843 
0.15194637281 4.2773535152 5.5431145185 7.5582714983 9.8464270494 9.9410798382 -9.731291213 3.5296514102 7.8277125742 
0.58433784231 -8.2304622644 5.1244310004 -3.1340617183 -5.0040583027 6.4090098622 0.43498343057 8.6910454114 2.2666761967 
-8.852701492 3.4827505683 3.6398842497 -3.8649867374 -3.9806699642 -0.22554587507 -7.778075504 6.9120465507 -0.40553816477 
3.5271580917 5.7806268848 -0.46924382548 4.7560601088 2.4284070559 -8.3085730538 4.7135835051 -1.2341019905 0.94835544774 
-9.0382012936 8.9017304153 3.1633845734 2.59268673 9.2535505848 6.5633869693 -2.8301027002 -0.38560784245 -0.37401852983 
-9.2794422472 -8.8554197832 -8.575081351 -1.6383658369 -5.7763960569 -0.74219451793 1.4395438468 4.9556806951 -2.0300378438 
-3.9945992623 8.9678206198 -1.4113732107 0.31358925493 -8.0702555133 9.9241793513 -1.6178494948 8.1305034958 -0.96692870225 
-1.7534451055 -9.8849299155 -2.5336879571 -5.6939768414 -8.2993334931 5.8723609898 -9.6313498225 -8.0007379891 -2.6371183551 
9.5282516601 4.0851957603 0.53848658184 -5.6294830978 -2.8311497656 7.5519566191 -6.8315035718 9.9653866545 -9.8807265781 
-3.2675335721 -0.25190063544 -3.3783469768 -0.055870930196 2.7975496478 3.2827228719 7.8360161899 -2.8534070134 4.4181350248 
6.3747964681 -1.6643787315 3.2841434227 -3.601574703 -0.16171275056 -7.3469588973 4.2419502479 7.1629998729 5.112318559 
6.2895136236 5.4847080934 1.6668585161 -5.0019635578 9.0535837976 1.1783317291 6.7742416487 -8.4381485847 -0.051622889683 
5.5531006503 -9.0865588035 -6.4835973237 -5.4864238604 -9.5971135087 -9.9181165396 4.718571758 5.5357228095 -0.66897420386 
0.2091932384 8.2238315457 8.1419599396 -7.0705807429 -2.2873541505 8.6080869488 5.3889097718 -4.4136564691 -2.8964741331 
2.6938682448 0.14586277126 2.9900515525 -3.2701521746 -8.6077537496 -3.6085510283 6.0664527866 -5.2738303466 -7.4865015155 
5.5964854609 5.2421239747 7.4910285714 0.80048010307 1.7396247886 7.1841854065 -7.1912072503 -9.1326447635 -6.6047453203 
7.3249030059 2.7280387873 -1.1300313068 -2.2406124865 1.2161979902 6.9165129491 1.0818581693 5.9811050852 -9.8133864778 
-0.16937867624 7.1258110086 5.7305843522 -7.7155557314 -7.5797924999 9.2497056212 -2.1022039889 0.44270862629 -0.53850127803 
-3.571674959 -8.4267059693 -3.9997223404 -3.881543206 -8.9104782283 -7.8815994902 6.2591169663 7.3554718366 5.432023839 
-5.334922149 -5.9047189061 9.2126285847 1.6519126279 -7.3003030513 -8.2057945886 3.6975747573 6.2312023512 -3.7174120675 
2.0900519706 0.030365646861 -6.7155379892 9.071447302 -1.8462005589 -7.2333810662 -1.0046953571 -1.0422534626 0.88314351556 
4.0045774776 -5.6752103296 -8.6537425543 8.2435990194 6.8172771502 4.8876228863 -7.1280512998 -9.9921466101 5.9509823915 
-7.8831184459 8.5767059039 -7.3321165713 7.524514664 6.7339167246 5.9054996784 -8.8246119759 7.8787315946 -9.708342893 
-9.609354477 9.3991640102 9.1682432326 -8.6947887443 -3.9667815651 -8.7979253119 7.9130544255 9.6904174059 7.8928236921 
9.6590323601 -9.9520112075 -9.8492250664 3.2038912857 -5.7223473664 1.539002649 -8.8623215425 4.2701352983 1.7943976511 
5.0837877129 2.1751344078 -5.1857135928 -7.5559271803 4.0994357833 -3.4439610705 8.2868271435 -9.0894071754 5.3984980546 
-3.3499783871 -3.7327214942 -9.4386323917 -4.1822740129 9.7328677883 9.468790401 -9.4520678026 -6.6326315165 2.3648452422 
6.0945704619 -2.1011260735 -8.081051991 3.1914035385 3.173316858 6.3572470113 6.9292081847 -0.27332534338 -9.4228583812 
2.0526444719 -2.4367390283 -9.34499371 -7.0940531117 2.9377631036 -8.589976418 -9.9709089536 -9.0679018613 9.628662122 
8.8415506148 9.5039255265 9.4361832644 -9.0000489441 7.348561207 -2.6187386008 -3.2416185001 -1.3108156227 2.2715038 
6.088526817 0.47680712728 -3.5439031738 -9.920165801 0.15407577178 7.6303435703 2.2649675183 5.0606949976 4.9781110198 
-1.2550616966 -6.4237400989 -7.7013053666 -4.5048920958 8.6476069273 7.418032411 3.8524360673 -4.9287891565 -4.6194269895 
3.1470137426 3.712360421 -4.2179621473 -9.2901678419 2.4545183622 4.9391807855 -1.4574530324 2.7390979111 -5.7619727709 
-0.43359520555 7.2216783491 -4.9546141154 6.7346575855 -1.0516483487 0.29398110742 -3.2981101483 -1.198345291 -0.76086127709 
9.9344486962 1.2708933089 0.089148734472 -6.3871129245 5.3173667765 -0.78629634856 -6.1127148008 -0.065888394135 0.07273932005 
-9.4263923895 -4.767612827 4.371392789 -0.054727094762 4.2758436025 7.6525210592 7.7544255159 -9.9122444254 -8.0025722874 
9.9286714171 -9.9736877182 -9.9177614036 -7.5982448681 9.9981601095 9.9686152594 -3.5729927024 4.1335634544 -4.2662524663 
-0.34286390351 -6.1383190328 5.0350837688 -5.8054502494 9.4723717822 -9.97524404 -8.4747719225 9.3244184206 -0.75096669941 
-3.6530474442 -8.5894593154 3.7940290616 4.0751044993 -8.176844493 2.4015351712 -3.4357231644 -4.6179915262 4.9464472879 
-1.3792127329 -4.725265663 7.0473485649 -7.1305447591 1.4175041383 0.80756387107 -7.9289295989 -0.66240888749 1.7351983224 
-8.3452821743 1.4804166978 -7.0793674974 9.2211373263 3.8412749613 3.1676228252 2.1467760216 -0.12766350078 5.93153683 
0.58860476018 2.2769842619 8.041005962 5.6801460307 9.7543992271 -9.8364303982 -6.4721822155 2.7928547968 0.98918977567 
-0.34421298272 7.1463988897 -8.9086167646 4.6536126693 -1.0612250728 -0.0115824497 9.3273647931 -0.40324210015 2.8029312859 
-9.2822500556 5.9453545787 8.9269568351 -5.7920595628 -4.6224568088 9.7067698451 -5.0648043947 -9.8885151024 9.4562617759 
-8.4302023145 0.46920893065 -1.8670916762 6.9598640379 9.8630460748 -9.8979384981 9.6937897369 5.0764593201 -9.6963876478 
-1.3739657752 -3.3504048965 9.9725320401 -3.1220338882 3.7437488645 -9.5751824128 0.46546557271 5.4062137408 -4.661197568 
5.537031033 -8.7024431084 5.2858017569 -0.56565047104 -9.8326710865 0.75956083506 4.8047296853 1.6419898735 -0.77949226858 
-8.6815549344 3.7689440633 2.5916254702 9.4341013008 -6.0638002031 2.6968497626 1.4826674627 -7.7100970566 3.1978275142 
3.9727626233 1.167117182 2.0557957597 8.1619023479 -6.7119288004 -9.2707959772 8.2954362101 -9.4810023588 9.8335029904 
-4.4150794504 -8.3164218745 1.0761492777 -4.9172255253 6.6218744153 1.3367866129 -4.9441400383 3.5842197086 1.8725713744 
1.0219058926 5.5993823713 -7.7470043559 -0.8087508648 8.5212468608 8.7128129509 1.6323961857 -0.20222657686 -6.8489661201 
-9.475569111 -6.6925178078 -1.5552398452 -2.4924231343 7.7808995947 1.7930805989 1.3795035612 2.0999412804 1.4624289827 
-2.3208861618 2.8748355729 -7.7609324513 1.5626178102 -0.93517144136 -8.4581553851 -8.6656645481 -4.2139652423 1.8667222462 
1.7797630426 8.9286746855 5.6477127808 -0.22051321829 -0.43779192361 -5.9659400894 1.1259477058 4.8867942226 -5.1839984057 
0.12192752228 6.448286214 -8.3626579979 9.2474155415 8.7133586636 6.374055356 -2.6988576947 -1.7809370541 -5.1810453344 
2.9145090341 -1.7811695624 6.4521265405 1.4179687763 -3.2219963064 -3.3117617896 -8.9007801489 3.3061973842 -2.8066948661 
-5.9929744516 1.7488449476 -3.9948059343 4.5453662118 -1.6803311458 8.5279830557 -4.4386480252 -6.9727761168 -7.3003827315 
-5.4149501492 -8.324468712 -2.9880309283 7.3172961043 4.0101081275 -2.7818371561 5.5912384856 -7.5753411346 3.9182646655 
0.87389361377 7.5598505731 0.094544242914 7.9355463026 -3.7955138425 8.5654961655 -2.7922776512 -1.7492543725 -5.0178581494 
8.206487734 8.7607831159 -6.074875427 -8.1490517105 8.921088512 9.8395542256 1.6527951719 -9.7652416671 0.22581063248 
-7.0062514266 2.4284712937 -3.6219328574 -9.815895981 4.6887127596 8.7331158455 -8.3483421604 9.0038525997 -2.9749044213 
-0.44717184867 -0.29991978017 -6.3921710611 8.9667849256 7.4971799667 -7.6935401133 7.6661098186 9.2990129144 3.4749604865 
-9.4869867554 -4.3710780591 -5.3556254677 6.2586904267 0.087019177189 -4.6789490646 -6.1688598417 -2.4193074029 5.2951583796 
3.8254118024 2.1088783814 -5.1443714576 -2.821677795 0.49803217784 8.3381969145 8.2334512166 9.9982166264 -6.361254571 
0.93233378069 -1.6182884573 -2.0294452289 -2.8268880108 9.6099407438 -5.9352432625 3.8272822186 -6.7662664376 -8.3173073758 
-4.9015004499 5.4176853919 -8.3005388423 -7.7622502607 9.9690938619 9.049917672 -3.2024189797 -4.4084204558 7.9820676907 
1.1525436238 4.4169686146 0.068000871054 -7.0363588814 3.3730032038 -2.6258923214 -4.0500862805 4.3483023419 1.3086750568 
-2.0291746109 4.3789243684 -2.3099490228 -7.2992156563 -3.2483806813 0.44860485771 -6.2047673668 0.39128571093 9.3392787921 
-4.2101163901 2.0455064614 -6.4758559934 6.6024775194 0.022271247051 -0.97214153406 -7.4330278311 -7.7005504942 9.8063839509 
2.7484184506 -9.0405265246 8.0335789381 -1.0042229781 -8.3962942128 1.7092858034 -0.48333866507 -9.9976392812 -6.1800212873 
1.077556171 3.0549875166 7.9183169032 -2.4692004458 5.1724493198 -6.9861963875 6.8762299217 0.3403533481 -2.798984547 
9.4432217834 -6.3905149459 3.2573427047 8.7400328458 5.1104962839 -1.4759814375 -6.0435495294 -1.0079274787 -5.9630305898 
2.8022435132 2.4863710794 7.4826799243 9.0591072393 -6.364681652 -0.020457935424 -0.56391269491 7.8104785792 5.8023383751 
-3.6799226452 -5.9636989256 -9.2800713282 1.2144449203 0.034458249496 5.4098714614 -8.191826543 3.58010767 9.2998490758 
-3.533192659 2.6913288751 9.8177210355 6.4298780802 -4.9657482761 8.4275333558 9.886174742 9.3168080302 -9.5012558283 
-8.6673045395 -9.3710676035 -5.7943354445 8.7966631105 6.3967743431 -0.99917191455 3.5730867356 -0.44484042072 1.2009672897 
-9.7743405206 3.4674288859 -2.0465006106 9.6255886859 8.5904669376 -5.9806072153 -9.5696686303 -1.2437814722 -9.1744352071 
-3.2140864415 4.0271637762 7.9421780152 8.2447517393 -8.4412018176 -7.7830394445 -4.9032663928 1.3115438818 5.2980552973 
-0.85665769366 -4.4092150043 3.4326122641 8.8271162582 -1.9036565237 -6.3526733109 2.0835624873 -7.6503080049 7.1213960744 
3.5504769246 -6.0627459974 5.089522341 -5.5694658406 -4.0822196516 -4.7764655921 0.83167044863 -0.21201524804 -3.4799280303 
4.3894521842 5.5219181474 -0.060371104156 0.95807988978 -7.9580600934 8.6071829882 -4.7761810334 -1.4087286474 -2.0363780837 
6.1806722465 -2.1615417803 -6.7470808976 -4.1689112543 3.6143923739 -9.0435787624 5.345316377 -5.138352122 -2.6219740429 
6.0490198792 -3.1023686174 -1.2212895977 -3.6064922685 1.0285627418 3.2226482378 2.3604264492 2.8469999413 -3.1361227998 
7.3147985551 3.6457403817 4.4336639431 -6.6713507957 7.4928877607 -4.5215915002 -3.6268597001 -4.0256355423 2.7234997244 
5.5023909266 -3.1137983192 1.3697074199 6.5640033286 3.600992757 -4.1093453935 -0.80407974345 -3.9858097899 7.6254940415 
4.041721163 -4.0467722018 7.2889572934 8.2692092352 -0.63421622366 3.8803348937 5.5927609169 6.0397671004 -8.7392283027 
5.7661741375 8.8450248094 -4.0505219082 -5.719591294 7.5690434219 -8.0753383285 -0.039400041121 -6.6505524 0.89315965323 
-4.4361961864 3.9972020698 5.5062341209 -1.9532058341 2.5188864544 0.61557413742 -7.7470618561 -1.9682035616 3.5968990958 
3.1257013448 0.50258023687 0.96365133152 -5.9596141602 -7.0240464977 0.26468687915 3.531971401 0.41868072198 -2.1735513429 
-6.4363281176 6.3787391571 -0.55303933808 3.1382489913 -0.43917092693 -7.0808962127 -0.39997777307 5.9659264207 -4.5467747712 
2.9984691946 -3.5874065031 5.197259587 1.6729457127 5.4977579671 0.20027371487 0.19292964417 8.0315198204 -0.44749205114 
1.9025877779 -1.0716196155 -0.15944796855 2.3525677721 4.110841458 1.0830930368 8.0513202278 -5.5387150165 -4.7400273446 
8.3885860867 2.6943452391 -6.1432510948 -8.6245182652 0.59920381316 -2.7832249818 5.6905298339 -3.322225739 -0.92502219983 
-9.1236475632 6.3287330973 -0.61730907539 -8.5215672268 -1.6140556048 5.3845322068 0.13756671049 -7.603062769 -3.8321738635 
5.259687265 -6.5675536137 7.9705021173 -8.7016205584 8.5193715294 9.7298539348 -0.049625062603 2.9794528628 5.5502927724 
6.7177284745 -6.796972987 1.2333820698 -2.0248454747 7.3942693097 0.67799535807 -7.5358590322 -0.69162580258 1.2208435188 
-0.54784598202 1.0706976312 -0.39982806642 -7.6337882988 -0.18761526338 -4.637447493 1.186973034 3.3800440303 -3.442355277 
-6.5385750266 1.9575891496 -6.7584859876 8.7112310859 -4.448432076 1.2217918226 0.4802666507 -0.80137948047 0.38602866759 
-3.1074903402 -8.2241923613 8.3987904143 -2.6849118673 -1.7287858119 3.1453748281 0.16877419735 4.7181054801 -1.7259037663 
-6.046059797 6.6992684946 -0.41488349513 -6.3839448359 -1.1181118187 -1.2429580717 3.0481995255 -1.23484425 5.9784125439 
-1.336499602 2.8020399933 2.1629544021 0.10993937049 -3.7958263598 -9.1892368164 -6.7843970506 -7.4418569451 6.5800152827 
-0.63237685559 -5.7879565528 1.3320312862 -3.2340165442 9.1370759214 -3.2884896539 5.4642804181 -6.0881068792 -1.8835184752 
1.7636720887 9.1084680808 -0.9397634661 5.4926214979 -7.13378387 -0.41354160168 -4.1352422248 -1.8509588733 -3.2609833999 
3.9317760792 2.007123085 0.35966925128 -5.3358409555 5.8294032762 -1.0731398821 2.0032260211 5.3955197386 -0.47104711927 
0.00020698792734 -5.0673052432 0.59238579836 4.6483217029 1.2256048595 -8.3299323289 -9.3889964536 0.17235819744 7.7145663172 
-5.2044340665 0.6628303868 -5.1497042333 -0.16633501996 7.9560781441 4.1211557826 -1.9066841534 -3.9013161766 2.2579226115 
-8.3732126052 9.5428175725 -4.0692681761 -6.3506322134 0.22408781949 -0.16100146011 -3.2320791904 -6.8504625267 3.016942694 
4.3799546427 -2.6947250453 5.5109305392 6.9999174394 8.598130092 2.4602009749 -2.0915728237 -3.7487512201 -5.5641356458 
7.2773496099 6.3581215451 7.5238006982 2.6153018922 -2.8440393271 -3.3532070368 -6.4330567625 8.6503303361 1.6873212661 
-4.6326828313 -3.3643844194 -9.8580774138 4.564543208 4.8160317645 -6.4816045305 2.8223205185 0.83786934293 4.8155235844 
1.2360549039 -2.0905544043 -3.2028544459 -5.9801303025 5.2607593968 0.2103403743 -2.4909848225 -1.1402209917 9.9695734063 
5.52206253 -5.5288095057 -1.834198536 -4.3462514544 5.9284210595 1.6840743909 3.7121660576 -0.091048949453 -4.3615800584 
-7.291572739 5.3743836186 3.082159338 -0.43051192505 -3.6096180945 2.1320439806 -6.760795688 3.0554875121 -0.16015636872 
-2.7752813614 -3.9849045002 7.0687429448 7.2401623314 -3.1977904921 8.1951705299 -6.4322793153 1.315233363 5.8481936689 
3.3512217394 9.0963849799 -4.606084747 -4.4073110247 -9.5634320412 -3.1886386861 4.3670969061 0.70953437063 -6.7258315933 
-4.5540548882 9.8648961901 -3.4476500164 0.59026552513 8.1719311275 -7.1189463756 -2.229373079 3.6382931676 0.31333291424 
5.793490308 0.2832250741 5.1028404251 4.8498288391 -7.1136236087 6.8341735976 2.702305688 3.1477373085 -4.4620075333 
-7.1124528079 3.1486238571 0.58976267631 -3.2073783506 -7.2154076176 -4.5228453243 -5.1800070183 6.7208614815 5.768285043 
1.665275177 1.8796304132 -9.9951670439 -3.5665199124 -0.048520927196 -0.97165808227 6.1475420465 -1.9102012573 0.29286157454 
-8.3652145239 8.013052964 -8.8408908759 -2.9769321563 -2.6436343831 9.2412481402 7.34210407 8.7536185173 -2.195677597 
-9.203841293 1.4902940402 -5.2381520331 -8.2277918663 4.568921209 -1.8434116474 -5.4130075791 0.64917173618 3.6559655541 
4.4983487193 3.0360530342 0.46239817211 -4.4354764123 2.7722194058 0.29450786463 -6.0605493171 1.3079350852 -9.6012841051 
0.32826372764 2.4987317712 6.6603654723 1.4290224153 -0.94903788622 8.9181491454 1.4650783421 -8.7851122947 1.2785408156 
8.0735041219 0.77164361851 3.3237269049 1.3386218072 -0.12309299789 -1.8442212911 -1.2356851254 -0.092144390533 -0.31361098777 
-1.7323688364 0.51519631811 2.7836992272 -1.616334849 4.7742478187 4.7296310651 -4.3259282184 1.4207151723 -5.1971017625 
9.3365148665 8.2244906726 -9.2938364049 3.8113509562 -8.8308499231 -2.9217276729 3.6389957429 -7.4305459592 1.6912559565 
5.1731710515 -1.5688478118 -7.3714024084 5.1743681308 -4.1638613518 6.3023730594 -0.096098799005 -9.69469541 -5.1108718915 
4.4062651325 9.9017365564 -3.5829607385 1.3349773755 -1.8794863821 8.2199726816 6.3227890026 2.1867792614 -7.3991667882 
3.7608566687 1.0893822805 0.37186725867 1.0143238845 0.21765940441 -1.4475889101 -2.1177093463 -2.2291414915 2.2291805687 
-6.1412580772 1.5832520065 0.010812156369 -8.6824639471 7.5212063872 -0.45482725088 -5.5547218254 -0.62585190084 6.8446180233 
-7.9660379535 2.9520692399 -3.9570688133 7.521790807 0.91567376489 5.2302261302 -7.2488162135 5.5608705005 1.0042081692 
6.4111026833 -4.8337605933 0.61350537935 -0.50658322108 -8.1620835197 -6.9814862105 5.662334554 1.6810471044 1.7071424397 
-3.7643272086 5.5582294082 7.6376129962 0.51233614693 7.7481891554 -9.4929874173 -4.1648769886 -8.0346358031 8.3988230314 
-2.8018500531 2.7838783769 9.9488831987 -2.9706133389 -1.1028927474 -0.86542640089 3.9855257976 -1.4806171963 7.4757125611 
3.981517953 -7.1390992441 -5.3015236731 -7.3017252322 4.6877505035 5.0553988327 -0.97972569895 -2.8511613817 -2.7864738189 
2.5980441606 -6.7571880549 4.9186704139 5.6583263739 8.1714900662 4.3721070368 4.4967393381 -3.9979624406 3.4692825333 
-4.454371589 1.8446825955 -5.2542338299 -3.1706871284 -3.3985282792 2.9351341602 3.0461976622 -4.9727839584 -1.627241953 
-5.91972776 4.1948348236 4.2674570031 -1.5390274811 9.1330421184 2.1105905842 5.6802253021 -1.004036324 7.3287637415 
5.1819614929 1.4354011754 -6.7073950116 -5.9794181139 1.7652154029 -6.9476297977 -1.9351514 6.9130926662 5.6636013119 
-5.9173333075 -4.9205286645 -1.5310909103 -2.1493057972 7.5390065758 5.1583986194 -1.764350853 1.9666282009 -6.7753273503 
6.3647936109 5.7120796171 -0.86766469487 2.254342431 3.1420073235 -8.2509187303 9.9916448501 -6.600629939 -4.1817026717 
-4.2373842551 1.4863319689 8.205918027 1.122407476 -8.4942508346 -4.5249582175 5.4150547049 -9.7884924341 3.6055869 
-3.2016625738 -4.6039663951 3.043118299 -3.7446588076 -0.92023743636 -5.0448481428 3.3384171393 -0.2648685206 -3.4148245566 
3.1361226073 2.1611318282 4.3985243233 0.46786298812 -1.3696314566 -0.94608726154 0.15766346193 -1.7538546932 -3.4495979523 
9.6218904363 5.0358819743 -6.6213994323 2.2602943969 5.0638264086 -7.0495114857 -7.1757051614 -4.8944361849 1.4055292667 
0.29454371233 -9.3969184034 0.51468331175 -8.943306726 5.4179798231 -0.25076127406 -6.0277517918 2.770995722 -8.6207880697 
7.5933317842 9.6584051156 6.8194426435 0.95077660622 -7.4212430385 -6.8247471677 -9.7173010659 7.1503064781 6.695915347 
-4.5912755799 -5.4587022428 -5.816122608 6.7892767667 -2.9226943234 4.3627407252 -4.0841949164 1.3121166828 9.2706162988 
-5.838430834 2.4578447817 -4.5208534854 2.3851472145 5.5424768853 -2.0048200062 0.19458598445 7.8740601304 -3.5675810503 