# vtk DataFile Version 5.1
vtk output
ASCII
DATASET POLYDATA
POINTS 1244 float
-15.3406 -8.44459 -6.0763 3.74847 7.22894 -20.7576 -1.84624 -14.6531 -3.43026 
7.01687 9.06052 -7.2861 -13.4808 -0.546559 -0.890996 -10.5859 1.66835 2.50468 
-7.26096 -8.37476 5.7525 0.444007 -3.58958 3.09732 -10.4299 -10.234 26.8421 
-24.6256 -25.5739 2.78018 -27.0999 -0.452817 -5.86344 -23.7999 -24.5396 4.04208 
11.8153 13.1796 5.04706 -21.2233 -25.945 12.9113 -14.8862 -4.61326 23.2513 
-24.385 -27.3306 4.75768 -15.3777 -11.4066 -12.2322 -13.1299 21.0264 -17.4167 
-9.63582 -22.9691 -11.0376 -15.8752 -2.07875 -15.1955 18.979 4.84142 17.6216 
-21.1833 3.99444 -21.3167 19.1561 -0.358532 18.8473 -14.628 10.6238 -15.068 
-9.74392 34.4946 -9.22358 -19.674 -1.77823 -21.3409 -26.9528 14.6007 7.58541 
-23.7268 -5.85266 14.5642 -27.9986 -7.78164 -11.2567 -22.5728 -27.8395 12.3367 
-43.7751 -4.36188 4.74015 -23.4846 -27.2679 -4.24998 -30.8206 -12.4177 18.4125 
-20.5582 -5.72365 -7.0509 -25.3334 17.8004 21.8275 -28.7009 -0.590968 16.4508 
-30.6876 4.03287 -12.1134 -4.47637 9.96881 4.90093 -25.2853 11.4836 -23.2447 
-36.8463 5.57387 17.5541 -26.066 -0.82432 -22.3715 0.157821 -5.99007 0.27215 
-26.6436 -7.2696 -4.15229 -24.9296 29.7054 4.2651 11.1134 -29.3529 -0.0031596 
-4.80319 -24.2236 11.2607 -13.1189 -19.6937 -16.9846 -4.26693 -34.2447 8.9078 
-33.925 -31.169 7.10041 -3.90458 -34.5749 -1.40268 -17.4003 -25.5925 22.1291 
-6.1248 -22.5286 -6.05414 9.66289 -25.1048 23.9513 14.8136 -5.81532 -29.095 
-14.4983 8.7829 -27.8415 7.23094 4.53756 -7.71054 -21.1192 11.3424 -26.28 
18.6768 5.40054 -36.6017 -21.8923 -0.602513 -27.6399 -0.068953 -4.35227 1.07044 
-0.351544 -6.99359 -26.3838 9.08296 29.8609 -21.3412 4.5075 6.72189 28.2878 
-6.8264 -11.0705 13.6808 -17.0744 -12.6521 -4.32885 7.87384 7.81184 -9.31318 
-23.6848 -24.4053 4.51905 6.78869 6.65504 16.8404 -12.4212 -12.2599 6.77484 
0.0159037 -0.0116886 -10.7813 -4.82417 -1.83095 35.1098 1.09334 28.9116 0.24463 
-15.4783 7.62082 -15.2731 1.85911 4.52901 2.24514 -19.244 5.83465 -20.4264 
-1.94149 35.7672 -1.2935 -14.9858 -9.97681 -15.3258 5.25106 4.12847 6.59981 
-7.95188 -13.2646 -8.10844 -1.05805 36.4581 -3.14184 13.0889 -20.9931 -16.8755 
-20.9847 -1.66201 -10.728 0.0799159 -18.141 -24.6576 26.4956 3.03743 -6.95192 
5.78998 -31.4178 -14.8956 -18.9046 2.22268 -7.01346 7.30531 -22.1448 -23.9246 
27.3766 1.94945 -15.523 2.36319 -22.4741 -16.1099 6.23795 -24.9994 -5.98199 
-2.99612 -25.0054 23.2255 11.0715 -24.7098 -7.69729 14.8512 15.5889 11.848 
11.3286 -29.2309 -9.30068 14.4321 18.0477 12.6549 -2.55417 -22.1586 -7.73644 
-17.5526 -1.30024 -7.51481 10.0996 -29.5016 10.6273 5.79375 15.1704 -32.4823 
5.18586 -11.0645 -28.5647 -4.66239 11.038 -6.80324 7.36069 -6.93917 -27.1791 
5.48573 23.9467 19.9814 1.8346 -8.50378 -28.3231 15.3396 11.6129 -6.89092 
-7.17491 -3.03201 -22.9841 30.1884 4.22695 -21.1628 19.4592 -10.707 19.5812 
15.8845 -7.14356 -15.7646 5.76776 13.7981 3.80771 12.5557 -17.3759 -18.2258 
12.806 -17.833 21.3135 -7.74015 -15.564 -14.8828 6.6638 12.3971 3.51348 
-9.89082 -5.34406 -5.91431 34.8316 0.720813 -6.55108 1.68123 -14.6967 5.41998 
-20.8726 2.13644 1.02064 -21.4563 11.7414 -7.93628 -9.70317 -15.8258 5.42101 
-8.62715 12.6012 6.31387 0.998096 10.2429 25.654 -0.310609 11.0616 -6.46536 
-21.2854 -1.33535 21.9949 -18.5709 -0.192729 18.1316 3.2528 -8.52879 -16.0906 
-22.5775 12.5409 1.64174 -21.9756 13.9534 7.38908 2.64969 4.50395 -14.971 
15.7931 15.4515 18.2095 5.48538 8.27911 3.84543 -21.7124 -11.4309 -8.18613 
-3.23393 -12.782 15.0619 0.467294 8.63955 9.06129 -21.8868 3.83638 18.1379 
-0.193514 3.82339 -8.51337 26.8423 5.0934 8.8872 19.2683 8.10759 11.2752 
2.17422 -5.01744 21.9741 7.04924 23.6081 14.0473 -3.87518 -14.4122 17.8248 
-9.02212 -14.3082 8.41833 -4.31037 -14.5045 -10.8295 -11.7059 0.0336041 4.34424 
14.3725 2.76904 -4.85322 -10.4166 10.7124 20.7643 -3.63355 20.5037 6.39943 
-8.31142 -15.3188 -2.13945 -8.7689 -24.3199 -2.53645 1.16708 22.2951 -0.62858 
-18.1051 1.71788 16.8475 19.6088 15.1755 -10.3949 -4.91979 19.3727 6.54783 
15.3655 12.56 23.9507 -3.31049 3.94285 -16.9714 -19.4472 14.4609 -5.80727 
13.995 6.90807 20.2619 -6.85058 10.8145 -12.2449 -17.2789 -12.5468 15.3767 
-12.6815 -17.0483 -7.47528 -4.86672 -6.5664 16.5946 3.18166 -16.3788 2.9602 
-9.82555 -16.9592 12.7101 -10.8821 -14.8259 -4.56042 -17.4483 1.87803 15.9228 
-18.4113 5.75241 4.46966 10.1823 10.6326 21.7822 -6.83174 20.274 3.88349 
-1.80793 -9.24981 6.70511 4.85214 1.61762 -6.2175 -20.0354 4.83953 14.1628 
-21.1011 2.68096 -2.9185 -0.625625 -18.2499 -11.29 -4.33722 -4.69579 -4.82176 
3.10816 9.14794 21.4887 0.51006 4.15826 -7.9291 11.3465 4.51123 24.1221 
-0.761102 3.85384 -4.22816 -20.6291 8.47054 15.4253 2.05632 -11.0838 12.9571 
-15.302 0.270755 11.3673 0.441577 10.6672 -9.66761 9.26488 6.58366 28.1397 
6.24203 24.1092 9.13994 -19.9677 1.84495 21.5328 -15.261 14.1371 11.7218 
7.19909 -11.707 11.5439 -21.0379 -6.73178 -5.71017 7.74105 4.14011 24.4743 
-7.54962 -4.31912 -0.286261 -10.861 16.5917 6.34103 14.874 1.17702 15.6087 
-0.453671 -2.61578 -6.13486 8.4876 17.0633 -4.53325 13.5852 -6.89032 -6.50494 
-7.48536 14.0849 5.9413 -0.572719 17.4506 -15.1191 4.24262 7.8206 22.1084 
16.0398 4.78746 -13.5901 -12.0708 9.13731 5.14078 9.01837 8.04684 5.90286 
13.5726 5.61251 -17.436 -1.62817 28.626 -8.52149 -16.6143 -5.48456 18.4802 
-0.964538 -5.0009 -9.87784 17.9845 5.56109 20.5785 -6.00085 24.5693 -6.41295 
-19.3171 4.11489 -3.939 -23.3723 14.8024 18.1163 1.38781 9.94461 -18.0269 
15.777 5.09325 0.794576 -1.13328 -7.98786 -4.68853 14.5724 -3.87361 -5.32938 
-12.7645 12.702 -5.58854 -0.248695 -1.64037 14.6093 9.06667 12.9523 -15.7465 
-0.564698 7.59174 6.19229 -7.0074 1.33988 -6.22866 19.2191 8.08857 4.38743 
3.22917 -1.9935 16.3347 -22.061 -2.02485 1.51532 18.8451 10.3086 -11.6031 
-7.42129 18.7842 5.52296 6.13221 18.4182 -8.21897 -22.8938 9.87875 -3.20346 
8.28578 20.037 15.2342 -11.5026 2.49088 -8.95127 10.2624 17.3756 17.6103 
-7.13469 3.79448 12.8422 -22.9597 2.06144 -11.5681 7.11694 -8.7987 4.9704 
6.11529 -1.93704 -17.4021 -3.97709 19.3079 -10.1394 -4.40522 -6.40734 12.1718 
-1.01311 22.8179 2.27645 -10.0823 -1.06677 -8.46773 -5.47437 28.1951 10.352 
-11.9483 -10.2929 19.4651 10.6712 4.69014 28.943 3.56251 25.9668 0.568732 
-17.508 20.8862 3.99589 13.7937 -4.15839 6.452 4.94572 -7.65951 15.4865 
-1.56958 -3.74513 -3.26125 -11.2799 11.4693 24.5145 0.558131 -9.46673 15.2272 
-4.86169 18.1007 -11.5716 -10.6679 -3.55585 19.4663 -13.488 -10.6103 -10.0481 
11.9788 18.0916 8.06297 23.7705 -7.28122 -3.16385 12.0181 9.02692 1.28561 
-10.9193 -2.22254 9.75403 14.2575 -4.77534 -7.01692 7.36642 19.0511 7.85933 
-3.97727 -14.3424 -8.95007 -11.1159 5.68054 12.5937 -33.8407 -3.75281 1.64346 
9.94637 3.3665 -13.3617 -8.6504 14.7432 -2.57677 -2.04654 8.67244 20.9949 
12.4282 3.84512 -9.79231 5.4532 -7.68535 15.3819 -8.12233 10.7187 1.4007 
5.59062 -8.28066 -13.671 22.1683 13.8494 3.00711 -1.24495 19.7367 18.0919 
-2.6997 24.5543 0.408742 -15.5594 1.95945 -1.85368 10.6766 6.69721 -7.31469 
-1.92133 -10.9526 21.9652 25.7902 5.64865 9.10058 -12.0287 7.84817 -3.98626 
1.86602 -7.44384 18.4525 -31.9334 -2.02657 7.87796 14.8172 4.54176 17.3203 
1.74399 4.94331 -6.67735 -10.0024 9.69195 17.4 13.8121 -12.6685 15.3284 
6.37722 -1.32037 21.4608 -0.369999 -4.08627 -6.75864 0.868627 5.2867 32.4964 
15.3543 -4.37095 18.7517 1.50106 7.00747 -3.68985 5.57706 16.8563 18.673 
-17.9043 9.18205 9.35584 -8.40233 10.6793 2.72186 10.7822 1.42326 20.9597 
11.0403 11.3637 -11.283 10.8041 -10.3591 -1.48678 10.2805 26.4102 7.87869 
-17.1716 2.73931 16.9743 -1.21228 -1.24134 -12.038 16.4076 -11.6225 11.3428 
-20.064 6.21176 15.2581 15.3325 -4.00111 -2.05724 -8.56524 6.25405 28.3962 
0.309551 -14.0783 14.1095 2.7041 14.5916 -18.3424 -7.11535 -11.3832 -12.0206 
18.8853 11.7095 3.20818 -16.4444 0.0158354 1.65333 6.20139 -2.0042 -7.20086 
-0.307328 -20.1296 9.65489 11.0646 -18.8381 5.08894 18.1007 -11.9504 10.7608 
0.736109 -10.7208 -10.6815 -4.06335 -4.29171 -15.0369 6.25558 9.89011 5.30312 
10.6147 17.4964 20.8844 12.9755 7.39986 -10.0499 -19.9532 8.36278 14.1686 
2.93929 1.1798 10.0915 13.5682 -10.0317 -11.9695 -1.65322 0.725554 10.8838 
-15.1248 8.67833 4.50769 11.0576 -11.3416 -10.0777 25.1049 14.9874 18.0913 
5.98062 -6.9968 4.44928 -1.81071 0.951857 17.461 13.0946 -4.79316 -8.69632 
8.85676 3.11782 -0.200552 -10.0049 1.0444 17.9353 11.3906 -0.909612 -11.4987 
35.3753 2.53885 7.85009 31.1167 6.55743 7.00878 18.095 -5.68647 19.9131 
11.3801 23.9813 13.2557 17.4194 1.79824 22.5328 5.91442 -23.6105 10.3507 
7.39365 -11.4503 -11.6493 1.2242 -1.66929 1.56451 11.0515 -4.91477 -14.1325 
7.34308 -3.97438 -11.2741 1.46787 -8.23318 -2.41643 4.93104 -23.2497 0.0100152 
7.85693 -3.50217 -15.0706 10.8414 17.3528 -4.35877 6.7067 -15.8372 -3.44794 
17.3446 -1.35782 -16.3765 -0.293703 17.2134 -2.9009 20.7171 7.77483 23.8182 
7.48814 1.60308 -15.9102 11.4673 1.66961 -15.2502 -4.43506 11.0023 16.2868 
5.84504 18.5912 -12.1648 -13.8112 -4.79342 20.3057 -2.71647 -13.2492 1.60279 
-1.31648 18.415 15.8149 5.06288 11.6252 17.5285 -0.291862 -8.33447 11.3821 
-14.6816 -6.69667 17.6882 -4.75005 0.967208 22.0806 -7.70789 4.14266 4.16503 
20.3903 10.8523 21.6439 7.69463 17.5706 13.0338 25.304 -8.94243 12.3305 
8.42058 -23.2316 11.6511 -0.328585 0.707193 -5.82983 -5.97657 0.544417 8.66423 
-11.7409 0.945538 -2.51807 23.497 -8.48364 -0.955663 13.4371 4.34323 25.5261 
10.4062 3.8075 -9.7327 20.1165 3.07799 22.6507 8.68655 2.89992 -4.58769 
-10.6508 3.33519 19.5698 12.8053 -9.95433 21.3391 -4.01292 -1.44736 9.4889 
10.1868 22.5683 -4.31468 16.1269 8.77535 24.1567 1.58915 1.43704 -0.303473 
-7.3429 10.1498 20.7784 4.54039 16.9312 17.847 16.7192 -10.8242 14.173 
-7.64704 -4.71956 -10.75 20.5937 14.5201 26.0583 -13.3378 9.63141 6.70849 
-1.89047 -14.9472 14.3655 3.43834 21.6612 17.2619 20.3328 -5.5442 -7.57608 
6.55264 -19.4439 1.78901 2.33867 17.8841 3.86603 27.7621 13.2406 -0.33306 
8.56207 19.0768 -11.5319 14.4566 10.5884 22.3753 26.4958 2.40778 -4.28716 
[...]
CELL_DATA 2484
SCALARS scalars double
LOOKUP_TABLE default
-3.0245561249 -7.2016412011 -9.0911339136 -4.0067927163 4.4034270323 8.9595588273 2.0673398027 -0.36551754238 0.49958915568 
-5.9292742774 -1.097721616 -2.5644022205 2.4696494824 8.3512457345 -3.3322550632 -1.4792471289 -4.2642129126 5.9656780022 
2.6634169841 -8.6573054285 -0.14277173911 2.6421483832 -0.95211510321 -9.2561620144 -7.0048112715 9.7120204566 7.277681661 
-9.1020881893 9.9972379003 9.8739422962 9.7748329632 -9.8576745094 -9.99799966 9.6858631851 -9.9919805341 9.9950821165 
4.8539742664 6.6938053009 -9.2977201214 6.7847043409 -6.3643302534 9.6394090936 3.8910200471 -6.8758615976 0.051347675189 
3.1988717949 9.4359260434 -4.5767359438 -4.1141721742 9.84604229 -5.9538719892 -7.9436505251 7.9306001297 -2.1513304319 
2.2604473233 -4.316244496 -2.6506132715 5.5191003004 -0.70153336164 -6.2333388566 3.0906710445 7.6701322258 -6.420074227 
9.5621066808 6.8244010756 -5.4296448635 -8.9025649899 -6.5065935078 -3.8291140412 -9.0852037925 6.1871754316 -4.3830882536 
9.9792015182 -4.6521810211 3.5268350632 -6.8711749875 -9.6420033155 8.2696540598 -6.0181441292 8.6302585045 1.1829731694 
-0.46208555181 -8.0432176986 9.4596355854 -5.3805362058 4.3485129371 -4.9371089115 -9.8841011328 3.9878057543 -9.8059081079 
9.8677371351 -7.440036196 -9.4702452935 4.5406059128 7.5104297763 7.7208389434 3.8261909976 -9.35740773 9.8960371695 
6.0926794226 -4.1983840589 1.2135784563 -5.1722934505 9.8150858139 9.8291250998 -9.8226278704 -2.9807374706 -9.8170596694 
7.088875273 -9.5188710686 -8.9752749623 9.4501539699 1.0011051815 -1.0380067868 7.4889480145 -4.7324369491 -9.6631155442 
0.091370685835 4.527983511 5.289987792 7.5106632377 9.8330739284 9.9278629174 -9.7223683611 3.7163995574 7.8510849711 
0.5222623445 -8.2284917227 5.3939727084 -3.2181669856 -5.0123629046 6.4754646866 0.87564005543 8.7179413318 2.1778973527 
-8.8855626703 3.6737646024 4.0079738645 -3.9367058143 -3.3121335608 -0.38239989209 -7.5953601029 7.0905985816 -0.49957948211 
3.691593706 5.7519936289 -0.4148323896 4.6556644901 2.4190825598 -8.2882327661 4.6317244056 -1.2272086519 1.1312318579 
-8.923377076 8.6620445905 2.9338648106 2.4909253427 9.2862903814 6.5915549735 -2.6799119958 -0.38989267829 -0.3775400612 
-9.3367718112 -8.6185633556 -8.2064392736 -1.6005608171 -5.553453595 -0.90684512246 1.5129983599 5.3012910524 -2.2061641114 
-4.0167980085 8.921769622 -1.7163997828 0.67194720466 -8.1186444854 9.9300246433 -2.2018119674 8.2135366832 -0.99328399538 
-1.7413105673 -9.9710045314 -2.4398474725 -5.5396442956 -7.954955901 5.6295293525 -9.64585682 -8.0691555953 -2.743119179 
9.5225378285 3.4432613407 0.94171498938 -5.7048718754 -2.9725550435 7.3897809368 -6.627553496 9.9777462334 -9.8438185576 
-3.2790931975 -0.25963628779 -3.7227315352 -0.053570725405 2.7277771106 3.4584815975 7.8814172743 -2.7868308792 4.4630566477 
6.5000601516 -1.7011492213 3.4248564282 -3.5566077466 -0.051650117445 -7.3515838036 4.2739751679 7.3699287951 4.816984983 
6.3170386089 5.1927166393 1.2650953661 -5.3254424407 9.1645426117 0.94717400267 6.6604873124 -8.2374720232 0.10145111276 
5.5166448798 -9.2329764836 -6.695333709 -5.5151900339 -9.6070416543 -9.9017542918 4.6572910062 5.4077458641 -0.60450671412 
0.24498712658 7.9945608096 7.9680822045 -6.7319009881 -2.3956462633 8.584996654 5.400007588 -4.4894122443 -2.6568926653 
2.7877538878 0.12379916467 2.7810054677 -3.0476260397 -8.527416779 -3.4433304033 5.8932822702 -5.4933389733 -7.3220043089 
5.0481276287 5.062555309 7.4403367098 0.76963587153 1.6662624447 7.2505564798 -6.981312141 -9.1739056622 -6.5580616078 
7.3575276948 2.93464365 -1.212107728 -2.2356404935 1.2864418204 6.8821709143 1.3443700958 5.7602287827 -9.7955407112 
-0.19916515575 7.065018132 5.8891535935 -7.8288802407 -7.4774689309 9.2489208482 -2.0296876135 0.30589908294 -0.54508225705 
-3.8020763597 -8.4122407402 -3.9296081833 -4.1580782449 -8.8048323031 -7.6692379157 6.1058198988 7.2939577195 5.462592383 
-5.4477876848 -5.895238099 9.2147182309 1.1937115577 -6.8578008617 -8.014251987 3.5559196997 6.5402150116 -3.6942180321 
2.2991390427 0.59717018171 -7.1454012923 9.0085995102 -0.95676053252 -7.1271038341 -1.2671693659 -0.86120034316 0.85435874211 
3.9424571216 -5.5913450829 -8.6231008235 8.0955850164 6.66545553 4.8258000412 -7.2755340291 -9.9989197145 5.7482696613 
-7.9434746062 8.3973036397 -7.0811392246 7.6394162378 6.6748151345 5.7906381599 -8.8392309619 7.7063416155 -9.7747257602 
-9.6238916745 9.4607664694 8.8923636425 -8.5869012224 -3.6625945958 -8.6184673249 7.7276767367 9.7466239979 7.5538930359 
9.656064126 -9.9522824596 -9.7461223858 3.1787951926 -5.5817175611 1.3945438209 -9.0073809246 4.3101224677 1.5314562689 
5.08023162 2.0821094027 -5.1962862349 -7.4937506305 4.0389234144 -3.1796214711 8.2148685154 -9.1462157977 5.3714054178 
-3.2513141291 -3.7029760021 -9.5745010094 -3.9746378918 9.7746604348 9.5538238574 -9.5441594318 -6.6177883621 2.4552880531 
6.2520961366 -2.1985827714 -8.2403085297 3.2134660397 3.0405625346 6.6874245006 6.9372962164 -0.035710192887 -9.4032041584 
1.8894568937 -2.3902224966 -9.344503888 -7.0772731225 2.9455605703 -8.5111113996 -9.9719870814 -9.0216223264 9.5689258394 
8.7777646852 9.4842375297 9.3839195611 -8.939340161 7.5581837918 -2.5974529522 -3.108731293 -1.4295452097 2.2494523128 
6.1471340683 0.042595468124 -3.5992099414 -9.9510506345 0.045324305835 7.5421594003 2.53224183 5.1394376991 4.8369945994 
-1.2185855652 -6.3540452362 -7.3977557082 -4.2324017059 8.558544784 7.1200192748 3.7791895712 -5.2730142597 -4.8168254089 
3.4646157029 3.4692799017 -4.2110642398 -9.3152752381 2.4639656635 4.8987086777 -1.2871955609 2.5738350254 -5.7083576388 
-0.20042337704 7.255959545 -4.8896049734 6.9644024561 -1.3254797011 0.60923797443 -3.429675186 -0.92652216909 -0.91399367114 
9.9473835136 1.158370203 0.38480927976 -6.4297483767 5.7568864138 -1.201425144 -5.8899546732 -0.10208087171 -0.038846982761 
-9.3670122991 -4.8688076038 4.2482679861 0.04019459604 4.4861929869 7.7796092537 7.7922705015 -9.9037871738 -8.2089833325 
9.9687421542 -9.9720750858 -9.9242969127 -7.7220822688 9.9990076701 9.9623633554 -3.6023257775 3.9448228286 -4.0620717844 
-0.33438634906 -6.2079315667 5.2357106031 -5.880992026 9.4937498178 -9.9682068863 -8.4389607738 9.3395240035 -0.51568005531 
-3.751340594 -8.6230988694 3.8787577273 4.1765628209 -8.2763379791 2.7240675376 -3.4867590319 -4.700263305 5.0235084712 
-1.26509222 -4.8826201431 7.0946656336 -7.1587965131 1.5607407484 0.64839546821 -7.8136285015 -0.47273193624 1.5867053678 
-8.323456138 1.382748878 -7.124216246 9.1983185804 3.8110117281 3.1414187069 2.0753863068 0.013248557247 6.114478434 
0.75762126468 2.1586194395 7.7636691636 5.7629133109 9.7839678432 -9.8671405033 -6.5025443236 2.7253876571 1.2370563763 
-0.37285283399 7.1276615278 -8.8837662165 4.6190425201 -0.85913996631 -0.11014602298 9.2670530922 -0.42199727014 2.820093718 
-9.1798431223 5.825136659 8.8552519954 -5.678523648 -4.5824985763 9.6865075558 -4.9811574185 -9.8811726546 9.3817569356 
-8.3118619114 0.52833542181 -1.8121120586 6.8207868125 9.8471528569 -9.8900077342 9.6314927805 5.0255940997 -9.683197054 
-1.4736254168 -3.4016236462 9.9783199951 -3.4558034439 3.7542776814 -9.579101169 0.34127465024 5.505756641 -4.5550537205 
5.7124802923 -8.6896158296 5.1409941176 -0.66130326532 -9.875574062 0.76158758325 5.0510918373 1.5838849969 -0.5366468647 
-8.6355572585 3.7430226273 2.7258612536 9.4209603299 -6.3565875398 2.6660099483 1.2206485424 -7.6692941406 3.3026889718 
3.8998827234 1.8155959377 1.4263769169 8.1340378074 -6.7100521712 -9.3835595382 8.6488678889 -9.4696068289 9.8719457865 
-4.5731559141 -8.6418860206 0.95597767367 -4.8716566637 6.799495718 1.2503462829 -5.0450394601 3.9270658496 1.8160678625 
0.87004799359 5.4859905268 -7.6543974666 -0.39119046713 8.4837514115 8.6409775966 1.538654174 -0.23149741654 -6.8258588624 
-9.3871620857 -6.4961585785 -1.7608557028 -2.3760679277 7.7037134897 1.7503736005 1.2553922969 2.0098428858 1.5015818598 
-2.3054615253 2.8007236052 -7.447719661 1.4568828857 -0.7542166011 -8.4831373945 -8.5045900981 -4.2209954114 1.691188473 
1.5929617801 9.1451986917 5.8010749032 -0.2372247951 -0.82664289527 -5.8432348046 1.0950902714 4.8038612549 -5.3190360345 
0.15675380283 6.4573916521 -8.5569783269 9.264327283 8.7335703127 6.5353981077 -2.7050133303 -1.940545998 -5.1590560884 
2.6428811476 -1.965812407 6.5964532448 1.5244519593 -3.1005645262 -3.1526026868 -8.9270179892 3.1898839034 -2.8201979793 
-6.1039332879 1.9292131689 -4.0578756701 4.3857920692 -1.9065827403 8.5685088249 -4.333636672 -6.8804757851 -7.1337320395 
-5.4829859022 -8.1875649039 -2.9082889592 7.417932524 3.6641658476 -2.7818706153 5.8295646829 -7.4995118612 3.7467576485 
0.84624273881 7.3928636658 0.0013231185948 7.9422885957 -4.1590636058 8.4861764496 -2.8852021405 -2.1389846694 -4.4885277147 
8.1076873185 8.5090090346 -6.0195538945 -8.0485559599 8.9525148286 9.8308100715 1.5531966871 -9.7724374142 0.53033234931 
-7.0553449841 2.4663606882 -3.6367185983 -9.7927002182 4.5031316203 8.6551023154 -8.0891932066 8.9920010624 -3.3844370471 
-0.43822217011 -0.23297968348 -5.9818570194 8.95206581 7.5705732014 -7.6576499892 7.6544799477 9.2556987971 3.5185876216 
-9.5896297668 -4.3230785845 -5.541203511 6.446907341 0.17612384263 -4.9513319389 -6.3867205143 -2.3584956741 5.6134310874 
4.0298592786 1.9159603798 -5.3635489302 -2.9791523802 0.60565323517 7.9430660217 8.1558320919 9.9937039937 -6.4325138035 
1.0622935426 -1.5834026162 -2.2919131173 -2.7337633747 9.676869559 -5.5941043614 3.6739544313 -6.636852782 -8.2561283597 
-4.823770705 5.1679089107 -8.3985472716 -7.3876029869 9.975437097 8.9088420137 -3.179280698 -4.6773455181 7.9716705237 
1.5543332815 4.7303364617 -0.060435015751 -7.0289743556 3.3831867136 -2.8024538069 -4.1961110285 4.3926247655 1.3849746544 
-1.7969215248 4.5586100202 -2.3148336896 -7.2291618829 -3.1076420877 0.88968460942 -6.1935901403 -0.099518137997 9.4069185226 
-3.979470481 2.045801342 -6.7375083964 6.4904248516 -0.16590700658 -0.96387959545 -7.4354113036 -7.7432728931 9.8010860064 
2.9100140777 -9.1393472419 7.9461720392 -0.75057064497 -8.5787573736 2.1073639489 -0.5038315919 -9.9971256989 -6.2320369841 
1.0803368885 3.2346883693 8.0815587303 -2.7578406998 5.6475822707 -6.7486904603 6.8901330366 0.22822068819 -2.7506932996 
9.3643341489 -6.3405513328 3.4874360576 8.5869088647 5.0626995753 -1.1987787067 -6.228050799 -0.87041971702 -6.1802428792 
2.8461879665 2.5933066812 7.5558742832 9.2272769994 -6.3353774211 -0.032235821723 -0.62645901056 7.878629189 5.8206101453 
-3.8061671616 -5.970739462 -9.3223632783 1.0886582482 0.047315169827 5.4078911896 -8.2081448617 3.141595703 9.281114923 
-3.1032407649 2.5429134244 9.8300195524 6.3937278765 -4.9153144811 8.2625168591 9.8662988186 9.2317917221 -9.4214569098 
-8.6632702937 -9.3404628389 -5.7064658561 8.786254524 6.4849983916 -1.1017326495 3.5847307642 -0.43962413 1.2736240859 
-9.798011934 3.6168553607 -2.0308653746 9.5814463863 8.7923487667 -5.5508747958 -9.5582974779 -1.5629385239 -9.1364720813 
-3.1847066272 4.2737339273 7.634972786 8.2650626912 -8.2614844242 -7.5014049968 -4.9909313115 1.3156315689 5.4191821043 
-0.88636400572 -4.1393410468 3.5132098513 8.8231892137 -2.0700227586 -6.3680588789 2.0013932203 -7.6757750828 7.0446341756 
3.4033737417 -6.1630529922 5.0294660442 -5.7736105222 -4.2886557509 -4.6506473518 0.65769753013 -0.12365760826 -3.5086724116 
4.0846694213 5.6242659786 0.017290030997 0.8681806575 -8.0185732832 8.6839881772 -4.5259281339 -1.4375715119 -1.8947311669 
6.4538312558 -1.9275751073 -6.610183619 -4.3572888761 3.5537627982 -9.0134064278 5.4300820388 -5.2884581468 -2.7466659731 
6.2606514524 -3.0799043361 -1.2660450076 -3.4477022637 1.0038653653 3.2585066133 2.5897222822 3.2378640338 -3.500101032 
7.131986665 3.7511133439 4.4230086423 -6.6034449141 7.4595036929 -4.633939339 -4.4653766636 -3.9977559966 2.7092076496 
5.192376568 -3.1626507252 1.2100768598 6.5446227827 3.2014680298 -4.0904653926 -0.68364652611 -4.2816688532 7.9412027291 
4.3367301427 -4.0983228548 7.4075408234 8.2464895568 -0.69927385601 3.7486265972 5.5939514767 6.0178941815 -8.7009829883 
5.7286679369 8.9832655181 -3.8962781895 -5.6298937449 7.4033007859 -8.1024829772 -0.20168590023 -6.6025718985 1.193177858 
-4.2143901892 3.9981475808 5.8553223319 -1.8411029135 2.473067271 0.52593575473 -7.7491335473 -2.2348937238 3.6308079183 
3.3829567054 0.53273629966 1.1604326497 -6.3211719792 -6.9937278364 -0.0027896804028 3.536269699 0.53468310299 -2.4099599126 
-6.8301114842 6.6912093866 -0.73032529663 3.0581763096 -0.52017744983 -7.1222738283 -0.13817026567 5.9428482814 -4.1714747962 
2.7657626191 -3.4717081721 5.0660743408 1.1781611344 5.3897052636 -0.023491582411 0.35365156366 7.948131319 -0.52814277105 
1.8427628517 -1.0177468706 -0.15992204416 2.3998972246 4.5359103908 1.4790616381 8.1510641101 -5.6544378677 -4.5822077381 
8.3624981512 2.814568026 -6.1631632763 -8.6976207695 0.51917942136 -3.0940517729 5.7249195296 -3.3799963531 -1.0637788881 
-9.0615014433 6.5196262042 -0.4980135646 -8.4530156144 -1.5047075135 5.0195540655 0.92424335171 -7.4802474127 -3.6938652958 
5.1345938873 -6.7633652853 7.7630251681 -8.5722542394 8.6277261852 9.7699577825 -0.78317795016 3.229745519 5.2799039845 
6.8367842155 -6.6145758599 1.3126683829 -2.1390803685 7.4363261077 0.72740627845 -7.6180640174 -0.71356622163 1.2819700105 
-0.53097116367 1.1480799096 -0.46866075593 -7.6206965814 -0.29379537635 -4.6890570296 1.4050539827 3.3668745317 -3.3271158602 
-6.2930481532 2.1824704862 -6.706374645 8.7193991934 -4.4798288445 1.130958348 0.50227290004 -0.61698910086 0.25885746926 
-3.1561142272 -8.2899406305 8.3705912448 -2.5550117757 -1.5669592753 3.0293992509 0.071166642526 4.3970295804 -1.5991874895 
-5.9676701683 6.2891960396 -0.045773389522 -6.6820495853 -1.2176657306 -1.1987591099 3.2787512164 -1.4670082912 6.0757409359 
-1.4254738976 2.9096152285 2.2165762228 0.13773434815 -3.9310580044 -9.2091617899 -6.8001167575 -7.499962223 6.6071824865 
-0.43369755937 -5.7743201038 1.587863874 -3.1880534333 9.1057467882 -3.1273724394 5.2650186785 -6.0032624955 -2.0378124358 
1.5693359185 8.9437656936 -0.8995218295 5.5869258699 -6.9010612247 -0.11800920112 -3.9603895755 -1.624838659 -3.802492885 
4.0911289202 1.9094072418 -0.055162895224 -5.2543037184 5.8313017893 -0.96797497572 2.0053985094 5.417341836 -0.60287745026 
-0.1877172662 -4.790389437 0.52135736773 4.9401277987 1.1665106901 -8.3514062758 -9.4681388061 0.22056563686 7.8007220593 
-5.291184327 0.67665201715 -5.4650175022 -0.02185040439 7.8516161338 4.1462253968 -1.8400391189 -3.9664651346 2.1222988173 
-8.337224538 9.5497285316 -3.8484353973 -6.4300765846 0.42664319175 -0.20075290049 -3.2952038192 -6.986551953 4.0551259646 
4.4400383476 -3.2821790772 5.8960904868 7.135090516 8.599669309 2.296973078 -1.9383332641 -3.7652488879 -5.4020523679 
7.2543709106 6.46118692 7.5615050791 2.5325526316 -2.7155722059 -3.2930510121 -6.4567934303 8.5769027695 1.3847673756 
-4.593651238 -3.2882788224 -9.8508693476 4.5770047764 4.9797174432 -6.9849642155 2.5630470062 0.98242456054 4.9891538695 
1.2562763771 -1.9801281673 -3.4344524096 -6.2376406405 5.5521248485 0.29056511344 -2.768348107 -1.4729162814 9.9746102057 
6.0939403488 -5.8320581333 -2.0342280902 -4.486004855 6.0101995889 1.8272764887 3.8381441735 0.16641472566 -4.2073634838 
-7.3302443985 5.5371132452 2.9652992894 -0.48401880867 -3.5666183352 2.1817642425 -6.9022588781 2.9418796048 -0.08247534405 
-2.8855119534 -3.8785327849 7.261750583 7.2387662254 -3.2182683094 8.1378032549 -6.4034931886 1.0275305425 5.7786305925 
3.2661598826 9.1587535593 -5.0840402182 -4.2321031612 -9.5431781036 -3.1839608269 4.3141682334 0.61005287963 -6.5942758747 
-4.8322975964 9.8777635268 -3.4939092695 1.1542812409 8.342619398 -7.4029155032 -1.8069607213 3.8072702475 1.0458509107 
5.6952304356 0.11028666115 4.9962361946 4.7358301503 -7.2318724417 6.551402782 2.8498702559 2.9449105551 -4.417571911 
-7.2002265362 3.0329449213 0.82100249758 -3.4400348392 -7.189003922 -4.3382831888 -5.0483083914 6.6643696083 5.7380421618 
1.6952532744 1.9061477626 -9.9974469186 -3.6443998953 0.0022106822176 -0.99286848076 6.1347165986 -1.685599923 0.064969094024 
-8.3962023801 8.2153819558 -8.6054904394 -2.7727222217 -2.4990446082 9.2218165174 7.1677961912 8.633780012 -2.3751203389 
-9.228527551 1.5369476208 -5.2406596163 -8.2326496751 4.5528121355 -2.1407379002 -5.4043065151 0.74804527667 3.7688727434 
4.6227320358 3.2280782838 0.35579592559 -4.574438783 2.8693822581 0.49646010179 -6.1259507179 1.1388099506 -9.5992971774 
0.35051871811 2.5544824361 6.4597094221 1.4693250381 -1.2165938317 8.6594171766 1.7049352014 -8.8630938912 1.2395083939 
7.9533611674 0.64605668223 3.53050216 1.3261438283 -0.082193975276 -1.9578491341 -1.4718325095 -0.013766694947 -0.078232925204 
-1.6382189542 0.59891893205 2.6321259327 -1.618266321 4.6300372838 4.7444012439 -4.1995140486 1.3878285795 -5.2029616579 
9.4106881528 8.1845143073 -9.2701676315 3.2915201177 -8.9491149012 -3.0245833418 3.7195960735 -7.5224130043 1.7380463589 
5.1954645398 -1.4906302923 -7.6034373406 5.2265777372 -4.3425408869 6.565228769 -0.5800008967 -9.7504083539 -4.8416274244 
4.3457801381 9.8868359102 -3.4947958247 1.4037961933 -1.8097958458 8.2899084969 6.3806436116 2.4078212785 -7.4961978991 
4.1045395579 1.154399031 0.38557672196 0.69613267295 0.27187098273 -1.5393209651 -2.2850307324 -2.1881479712 2.186948114 
-6.4187442303 1.2889649615 -0.37289843019 -8.6395570746 7.2058615169 -0.82852983791 -5.4209141661 -0.2340822182 6.8734830122 
-8.1046446582 2.9167813092 -3.9299782039 7.5119310811 0.92330837559 4.8191719574 -7.1840822098 5.5727686132 1.0470988481 
6.6537961262 -4.9660907012 0.83986924972 -0.39109684115 -7.9468835373 -6.9621433412 5.7054150117 1.8061095762 1.7593489211 
-4.163095024 5.6541634639 7.8021194178 0.42538499095 7.6966225298 -9.5117486757 -4.760523912 -7.9656478678 8.4935873789 
-3.1040361563 2.915450571 9.9576913606 -3.0669530628 -0.90817941481 -1.1256608445 4.2114608574 -1.9252672497 7.6175027153 
4.0098239637 -7.431809775 -4.8967017149 -7.2380249133 4.7545144653 5.5151124923 -0.96415815576 -3.2617349788 -2.8545079511 
2.6647932159 -6.8254917077 4.8095889494 5.6826830404 8.2514006083 4.09589251 4.3908565937 -4.1356948186 3.6158821754 
-4.2072137245 1.8779617459 -5.3037208363 -2.9289677741 -3.4538897402 3.0524660708 3.0979021762 -5.0348265618 -1.6780118694 
-5.9459564435 4.1035370977 4.2776198844 -1.3602329824 9.1674379031 2.2627381495 5.5457159506 -1.0159919342 7.2282460984 
5.1375711796 1.6479321391 -6.7896188921 -5.9518873955 1.9140897633 -6.9225347138 -2.0977659465 7.0762088786 5.5957263464 
-5.9743392931 -4.7172343413 -1.4947825369 -2.2259789801 7.6258057616 5.1947270821 -1.9614206073 1.9870710522 -6.7628136589 
6.3268160508 5.5600639802 -1.2342145323 2.2299249 3.0112982744 -8.164928626 9.97780699 -6.3325918795 -4.116310727 
-4.148534141 1.6533267963 8.3015157075 1.182618489 -8.3551990878 -4.6891038355 5.3743967385 -9.7159773233 3.1509488113 
-3.1298018726 -4.5796911236 2.8387673747 -3.5318084485 -1.0474726823 -5.1459645643 3.4715155574 -0.1192327077 -3.5567588957 
3.3203105279 2.3048451557 4.3021933576 0.31486170017 -0.95962657514 -1.0211227325 0.23574447693 -1.7530597978 -3.7090979544 
9.6379201295 4.9961513506 -6.4594513816 2.0524456462 5.0642414037 -7.0359210148 -7.2540224784 -4.7460880096 1.4043293832 
0.31727631909 -9.182391611 0.36851802846 -9.0099703517 5.4060914913 -0.026805014079 -5.8830419978 2.8172722068 -8.4906302852 
7.4570414926 9.6531926334 6.8480461806 1.0238412936 -7.4331054821 -6.8749972593 -9.6925711147 7.0920973273 6.7119020914 
-4.645178762 -5.4080007334 -5.9403267239 6.7065315139 -2.7868771353 4.2025151203 -3.8423211031 1.2030872148 9.2187391697 
-5.8718773334 2.5300187637 -4.3103075539 2.3414010117 5.756712867 -2.0057941632 0.22270347844 7.6987444924 -3.4932545289 