# vtk DataFile Version 5.1
vtk output
ASCII
DATASET POLYDATA
POINTS 356 float
-1.08085e-05 -9.19869e-05 0.0132118 0.0502894 -0.00357326 9.49979 -0.1624 9.43423 -0.112817 
-0.571109 9.47632 9.84888 9.66955 -0.597569 -0.0691194 9.39382 -0.0166915 9.50151 
9.82413 9.7597 -0.36106 9.93665 9.93932 9.96992 0.0164853 -0.000415077 1.42691 
0.019142 -0.000350775 2.8544 0.0114306 -0.000116631 4.28392 0.0159145 -0.000142758 5.71788 
0.028023 -0.000394006 7.14715 0.0191314 -0.0003066 8.57409 -0.0561956 1.43238 -0.00843667 
-0.068451 2.85467 -0.02931 -0.109727 4.28528 -0.0536584 -0.121052 5.71661 -0.0652125 
-0.14317 7.14172 -0.0908369 -0.155634 8.5749 -0.101641 -0.176824 10.6308 1.60652 
-0.168127 9.78186 2.86753 -0.152785 9.69608 4.21327 -0.150702 9.73891 5.77375 
-0.189341 9.87003 7.16396 -0.269578 10.6472 8.38264 -0.121264 1.43175 9.53124 
-0.13259 2.8571 9.52383 -0.317358 4.28363 9.58703 -0.335076 5.71819 9.58736 
-0.417172 7.15197 9.61688 -0.402368 8.40474 9.63138 9.4985 -0.13611 1.40137 
9.28459 -0.0781735 2.85789 9.2058 -0.0637644 4.24755 9.33328 -0.165859 5.71848 
9.43208 -0.189497 7.13851 9.47174 -0.255938 8.63785 9.6934 1.4145 -0.080432 
9.7125 2.88266 -0.1342 9.75124 4.2772 -0.201441 9.76332 5.71638 -0.212734 
9.79195 7.15246 -0.27621 9.80419 8.57848 -0.288645 9.6379 9.2573 1.32166 
9.44578 8.95214 2.84935 9.32729 8.7252 4.40076 9.37726 8.8352 5.22744 
9.99461 9.34663 6.72928 9.63393 9.36676 8.33494 9.51621 1.40976 9.52659 
9.43115 2.7401 9.52503 9.51586 4.24988 9.52948 9.57483 5.72835 9.57784 
9.61909 7.15265 9.81153 9.90828 8.5619 9.93569 1.42857 -8.10781e-06 0.00116053 
2.85701 -6.63579e-05 0.0121602 4.28571 0 0 5.71429 0 0 
7.14301 -0.000115832 0.0228187 8.5718 -7.30838e-05 0.0122869 1.39808 2.24586 13.7244 
2.46527 -0.368123 9.3041 4.28182 0.696981 11.7275 5.35299 -0.0767492 9.47323 
7.13954 -0.00149638 9.41226 8.5734 -0.00197297 9.42172 1.42455 10.0065 -0.147989 
2.71785 8.70515 -0.228469 4.22796 9.86966 -0.112812 6.07278 9.08857 -0.112248 
7.07973 9.81174 -0.115359 9.01718 9.20718 -0.202742 1.23931 10.024 9.53622 
2.94081 10.5753 9.65777 4.24218 9.72911 9.92392 5.75957 10.7302 9.52764 
7.10846 10.0971 9.83931 8.66796 9.50817 9.53732 -0.0176814 0.146092 5.00022 
-0.140046 5.78728 1.7422 -0.183228 5.7862 8.26246 -0.0854493 0.143072 8.25669 
-0.0817897 0.142993 1.7425 -0.307364 2.96823 9.56798 -0.551864 8.5967 9.81832 
-0.14931 8.60868 6.62759 -0.103154 2.96762 0.116093 -0.153895 8.60866 3.37162 
-0.155147 8.60854 0.115172 -0.107915 5.78787 5.00028 -0.0982591 2.96743 3.3721 
-0.0881516 2.96732 6.62841 -0.10969 0.141399 9.51623 -0.0711882 0.143115 6.62949 
-0.0726065 0.142926 3.37085 -0.0486447 0.142388 0.116777 -0.239946 4.37814 9.06882 
-0.369135 5.78488 9.59191 -0.304264 7.20173 9.05348 -0.157528 7.19857 7.44328 
-0.241876 8.60902 8.25778 -0.129908 4.37845 0.929926 -0.136364 5.78733 0.118595 
-0.146588 7.19807 2.55689 -0.152307 7.20017 0.93246 -0.169643 8.60876 1.74441 
-0.137094 8.60826 4.99977 -0.132007 7.19794 4.18611 -0.132645 5.78797 3.37235 
-0.120061 7.19847 5.81374 -0.110384 5.78754 6.62744 -0.123786 4.37777 2.55647 
-0.100515 2.96742 1.74399 -0.0798074 1.56288 0.933675 -0.0943776 1.56479 2.55929 
-0.0655148 1.561 4.18824 -0.105671 4.37756 7.44244 -0.101937 2.96757 8.25629 
-0.0658378 1.56076 5.81273 -0.0865011 1.56461 7.44052 -0.0963056 1.56206 9.06687 
-0.0785877 2.96708 5.00058 -0.0950632 4.37786 5.814 -0.0991353 4.37774 4.18626 
9.34242 0.15253 5.00344 9.54257 5.78818 1.73234 9.61974 5.78859 8.25568 
9.50372 0.16011 8.26691 9.48412 0.148638 1.73735 9.50749 2.97268 9.5281 
9.89467 8.60621 9.88756 9.71036 8.60586 6.65349 9.70451 2.96937 0.125433 
9.35881 8.60861 3.3729 9.75835 8.60747 0.129764 9.31637 5.78567 4.98615 
9.30153 2.96614 3.3809 9.42998 2.96979 6.62471 9.49897 0.141535 9.50548 
9.43561 0.150457 6.63742 9.29767 0.14519 3.35474 9.6649 0.195573 0.0931181 
9.60852 4.37739 9.06694 9.62052 5.8004 9.79827 9.64818 7.19766 9.07159 
9.58655 7.19621 7.44711 9.60411 8.60906 8.274 9.62533 4.37785 0.928415 
9.73115 5.78849 0.119856 9.46066 7.19542 2.53974 9.6498 7.19715 0.924685 
9.56909 8.60765 1.73592 9.30342 8.64232 4.9959 9.33533 7.17706 4.18705 
9.35053 5.78382 3.37709 9.40018 7.17423 5.80328 9.49675 5.7873 6.62982 
9.41866 4.37715 2.54676 9.51778 2.96674 1.73769 9.59719 1.56314 0.96383 
9.39593 1.55919 2.55827 9.22238 1.55991 4.1808 9.5489 4.37846 7.4441 
9.56863 2.96797 8.26382 9.35782 1.56329 5.80649 9.48956 1.56475 7.43759 
9.5163 1.56408 9.06496 9.28051 2.96691 4.97365 9.35259 4.37765 5.80624 
9.28759 4.37779 4.19239 4.21222 0 1.74328 4.21222 0 8.25671 
9.11952 0.00442767 5.01077 9.08261 0 8.25671 9.38089 0.135195 1.71768 
7.03307 0.113811 7.9616 1.39183 0 9.88507 1.39183 0 6.62836 
7.03262 0 0.114927 1.39183 0 3.37164 1.39183 0 0.114927 
4.21222 0 5 7.03262 0 3.37164 7.03262 0 6.62836 
9.44084 0.00177914 8.71334 9.33627 0.0177388 6.64113 8.16426 0.331732 3.37228 
9.6295 0.00105591 0.110162 5.50859 0.00959518 9.04527 4.21222 0 9.88507 
2.80203 0 9.07089 2.80203 0 7.44254 1.39183 0 8.25671 
5.62242 0 0.929106 4.21222 0 0.114927 2.80203 0 2.55746 
2.80203 0 0.929106 1.39183 0 1.74328 1.39183 0 5 
2.80203 0 4.18582 4.21222 0 3.37164 2.80203 0 5.81418 
4.21222 0 6.62836 5.62242 0 2.55746 7.03262 0 1.74328 
8.44282 0 0.929106 8.15401 -0.261215 2.55371 8.16396 -0.269161 4.18497 
5.62242 0 7.44254 7.03715 -0.288403 7.91549 8.44282 0 5.81418 
8.44282 0 7.44254 8.4353 0.0133812 9.08127 7.03262 0 5 
5.62242 0 5.81418 5.62242 0 4.18582 4.16864 8.15808 1.64139 
4.42845 10.8272 8.31469 10.3425 10.5938 4.73958 9.83738 10.6107 8.12725 
10.1025 10.2751 1.57872 7.43277 9.21649 9.93007 1.72948 11.3626 9.5797 
1.33849 11.1085 6.70686 7.12608 10.6392 -0.368167 1.30237 11.2812 3.27711 
1.33153 11.4004 -0.154884 3.94566 11.0032 5.08252 7.02338 9.96171 3.30043 
6.8371 8.94249 6.68729 9.95916 10.2224 10.0405 10.1051 10.5637 6.64121 
10.1742 10.5279 2.88506 9.85696 10.5964 -0.551737 5.25159 8.21289 9.65488 
4.33957 10.5949 10.0711 2.94577 8.41409 9.6692 2.76668 11.5328 7.46799 
1.17889 8.41257 8.32808 5.43459 11.0328 -0.0089778 4.23432 10.7184 -0.141759 
2.97939 11.1855 2.66115 2.82318 11.127 0.234444 1.55801 8.10739 1.47071 
1.59811 10.1877 4.97363 2.71078 8.76399 3.7337 4.22618 10.2334 3.26772 
2.53561 9.01629 6.19956 4.28557 8.77995 6.7249 5.71069 11.5613 2.72334 
7.29523 8.21414 1.55846 7.75236 12.1159 0.244607 8.13016 11.2124 2.80165 
8.99357 9.91527 4.29412 5.7251 9.97452 7.446 6.84482 11.5364 8.0385 
7.99662 11.835 5.93952 8.61616 8.24445 7.95532 8.47742 11.914 9.57472 
7.25225 8.96033 5.17843 6.0204 11.2729 5.81434 5.37621 8.95513 4.06323 
1.74318 4.21187 -0.0515332 8.25838 4.21208 -0.0607972 4.99988 9.8535 -0.105229 
8.2566 9.85336 -0.160352 1.75806 9.79305 -0.105515 9.75827 7.03075 -0.23868 
9.67344 1.39066 -0.120791 6.62796 1.39146 0.00262025 0.115157 7.03264 -0.0744209 
3.37157 1.39158 -0.00305988 0.115193 1.39155 0.000108114 5.00091 4.21191 -0.0448823 
3.37318 7.03225 -0.0669983 6.62808 7.03239 -0.0769463 9.79587 9.85466 -0.302582 
6.62905 9.85321 -0.105192 3.37236 9.853 -0.10501 0.117814 9.85379 -0.112665 
9.07105 5.62184 -0.13479 9.71089 4.20502 -0.168859 9.06456 2.80039 -0.079131 
7.4427 2.80135 -0.0171603 8.25714 1.39139 0.00366225 0.928761 5.62224 -0.0563407 
0.115822 4.21129 -0.0403635 2.55757 2.80159 -0.0243512 0.928593 2.80182 -0.0322369 
1.74286 1.39146 -0.0179106 4.9998 1.39163 -0.0244537 4.18636 2.80202 -0.0377722 
3.37137 4.21202 -0.0413118 5.81411 2.80183 -0.0212922 6.62879 4.21207 -0.0301466 
2.55751 5.62235 -0.059914 1.74303 7.03177 -0.0685226 0.923746 8.43729 -0.103469 
2.5697 8.43187 -0.081143 4.18431 8.44307 -0.105703 7.44296 5.62246 -0.0719651 
8.25965 7.03261 -0.115981 5.81867 8.4428 -0.0819279 7.44282 8.44279 -0.107425 
9.07333 8.44282 -0.19332 4.99977 7.03288 -0.0661558 5.81423 5.62236 -0.0529841 
4.18501 5.62203 -0.0532891 1.7437 4.21336 9.45829 8.26313 4.21383 9.46844 
4.99736 9.85305 9.71787 8.22168 9.85002 9.59689 1.7608 9.83742 9.55606 
9.59172 7.0228 9.59675 9.42572 1.38811 9.51563 6.62506 1.3912 9.4387 
0.118969 7.03237 9.55222 2.53811 1.54777 9.41353 0.0399495 1.27323 9.51129 
4.99859 4.21179 9.54542 3.37653 7.03068 9.67297 6.6265 7.03004 9.49413 
9.86923 9.78052 9.9351 6.65502 9.85045 9.71048 3.38559 9.85062 9.72557 
0.0779173 10.053 9.03713 9.05863 5.62456 9.51035 9.63547 4.22088 9.51467 
9.04943 2.80267 9.49194 7.44316 2.80165 9.42647 8.25564 1.39273 9.42801 
0.939413 5.62139 9.47836 0.110329 4.21168 9.5204 2.55288 2.80145 9.43379 
0.932575 2.80185 9.48284 2.44845 1.70628 9.41657 5.37065 1.63548 9.48417 
4.18859 2.80229 9.52984 3.37342 4.21203 9.53434 5.81069 2.80207 9.48449 
6.62667 4.21238 9.45887 2.55405 5.62156 9.49094 1.73328 7.03222 9.48027 
1.17982 8.2726 9.50406 2.56774 8.43726 9.59093 4.1877 8.4424 9.82325 
7.44323 5.62176 9.46238 8.2759 7.0041 9.48125 5.78153 8.43962 9.52042 
7.41528 8.4406 9.71132 8.81582 8.48924 9.50925 4.9973 7.02956 9.54499 
5.81615 5.62301 9.52005 4.18624 5.62222 9.58262 
POLYGONS 709 2124
OFFSETS vtktypeint64
0 3 6 9 12 15 18 21 24 
27 30 33 36 39 42 45 48 51 
54 57 60 63 66 69 72 75 78 
81 84 87 90 93 96 99 102 105 
108 111 114 117 120 123 126 129 132 
135 138 141 144 147 150 153 156 159 
162 165 168 171 174 177 180 183 186 
189 192 195 198 201 204 207 210 213 
216 219 222 225 228 231 234 237 240 
243 246 249 252 255 258 261 264 267 
270 273 276 279 282 285 288 291 294 
297 300 303 306 309 312 315 318 321 
324 327 330 333 336 339 342 345 348 
351 354 357 360 363 366 369 372 375 
378 381 384 387 390 393 396 399 402 
405 408 411 414 417 420 423 426 429 
432 435 438 441 444 447 450 453 456 
459 462 465 468 471 474 477 480 483 
486 489 492 495 498 501 504 507 510 
513 516 519 522 525 528 531 534 537 
540 543 546 549 552 555 558 561 564 
567 570 573 576 579 582 585 588 591 
594 597 600 603 606 609 612 615 618 
621 624 627 630 633 636 639 642 645 
648 651 654 657 660 663 666 669 672 
675 678 681 684 687 690 693 696 699 
702 705 708 711 714 717 720 723 726 
729 732 735 738 741 744 747 750 753 
756 759 762 765 768 771 774 777 780 
783 786 789 792 795 798 801 804 807 
810 813 816 819 822 825 828 831 834 
837 840 843 846 849 852 855 858 861 
864 867 870 873 876 879 882 885 888 
891 894 897 900 903 906 909 912 915 
918 921 924 927 930 933 936 939 942 
945 948 951 954 957 960 963 966 969 
972 975 978 981 984 987 990 993 996 
999 1002 1005 1008 1011 1014 1017 1020 1023 
1026 1029 1032 1035 1038 1041 1044 1047 1050 
1053 1056 1059 1062 1065 1068 1071 1074 1077 
1080 1083 1086 1089 1092 1095 1098 1101 1104 
1107 1110 1113 1116 1119 1122 1125 1128 1131 
1134 1137 1140 1143 1146 1149 1152 1155 1158 
1161 1164 1167 1170 1173 1176 1179 1182 1185 
1188 1191 1194 1197 1200 1203 1206 1209 1212 
1215 1218 1221 1224 1227 1230 1233 1236 1239 
1242 1245 1248 1251 1254 1257 1260 1263 1266 
1269 1272 1275 1278 1281 1284 1287 1290 1293 
1296 1299 1302 1305 1308 1311 1314 1317 1320 
1323 1326 1329 1332 1335 1338 1341 1344 1347 
1350 1353 1356 1359 1362 1365 1368 1371 1374 
1377 1380 1383 1386 1389 1392 1395 1398 1401 
1404 1407 1410 1413 1416 1419 1422 1425 1428 
1431 1434 1437 1440 1443 1446 1449 1452 1455 
1458 1461 1464 1467 1470 1473 1476 1479 1482 
1485 1488 1491 1494 1497 1500 1503 1506 1509 
1512 1515 1518 1521 1524 1527 1530 1533 1536 
1539 1542 1545 1548 1551 1554 1557 1560 1563 
1566 1569 1572 1575 1578 1581 1584 1587 1590 
1593 1596 1599 1602 1605 1608 1611 1614 1617 
1620 1623 1626 1629 1632 1635 1638 1641 1644 
1647 1650 1653 1656 1659 1662 1665 1668 1671 
1674 1677 1680 1683 1686 1689 1692 1695 1698 
1701 1704 1707 1710 1713 1716 1719 1722 1725 
1728 1731 1734 1737 1740 1743 1746 1749 1752 
1755 1758 1761 1764 1767 1770 1773 1776 1779 
1782 1785 1788 1791 1794 1797 1800 1803 1806 
1809 1812 1815 1818 1821 1824 1827 1830 1833 
1836 1839 1842 1845 1848 1851 1854 1857 1860 
1863 1866 1869 1872 1875 1878 1881 1884 1887 
1890 1893 1896 1899 1902 1905 1908 1911 1914 
1917 1920 1923 1926 1929 1932 1935 1938 1941 
1944 1947 1950 1953 1956 1959 1962 1965 1968 
1971 1974 1977 1980 1983 1986 1989 1992 1995 
1998 2001 2004 2007 2010 2013 2016 2019 2022 
2025 2028 2031 2034 2037 2040 2043 2046 2049 
2052 2055 2058 2061 2064 2067 2070 2073 2076 
2079 2082 2085 2088 2091 2094 2097 2100 2103 
2106 2109 2112 2115 2118 2121 2124 
CONNECTIVITY vtktypeint64
83 13 122 94 13 1 95 12 121 
11 12 95 80 11 120 10 11 80 
12 13 83 96 10 117 9 10 96 
84 9 116 8 9 84 97 8 115 
97 0 8 26 27 122 82 98 99 
99 98 29 27 28 85 85 28 98 
99 29 30 28 29 98 101 82 100 
102 100 86 87 101 102 100 102 101 
31 3 86 102 24 87 24 102 25 
25 86 3 86 25 102 86 30 31 
99 100 82 100 30 86 99 30 100 
16 15 88 88 15 115 104 103 81 
103 16 88 16 103 17 104 17 103 
106 81 105 107 105 89 90 106 107 
105 107 106 22 21 89 20 90 107 
90 20 2 107 21 20 21 107 89 
106 90 18 81 106 104 106 18 104 
104 18 17 2 19 90 90 19 18 
108 87 23 24 23 87 109 89 105 
108 22 89 108 23 22 110 105 81 
91 109 110 105 110 109 101 87 111 
112 111 91 82 101 112 111 112 101 
109 91 111 108 111 87 89 109 108 
111 108 109 113 81 103 114 103 88 
92 113 114 103 114 113 115 15 14 
14 0 97 84 115 8 117 92 116 
115 14 97 96 116 9 80 117 10 
116 96 117 115 84 116 114 116 92 
88 115 114 116 114 115 98 82 118 
119 118 93 85 98 119 118 119 98 
121 93 120 95 120 11 83 121 12 
120 95 121 85 122 27 94 122 13 
121 83 122 1 26 94 94 26 122 
119 122 85 93 121 119 122 119 121 
117 80 120 123 120 93 92 117 123 
120 123 117 124 93 118 112 118 82 
91 124 112 118 112 124 113 92 125 
110 125 91 81 113 110 125 110 113 
124 91 125 123 125 92 93 124 123 
125 123 124 129 168 37 140 5 37 
141 167 36 35 141 36 126 166 35 
34 126 35 36 129 37 142 163 34 
33 142 34 130 162 33 32 130 33 
143 161 32 143 32 4 50 168 51 
128 145 144 145 53 144 51 131 52 
131 144 52 145 54 53 52 144 53 
147 146 128 148 132 146 133 148 147 
146 147 148 55 132 7 148 133 48 
48 49 148 49 7 132 132 148 49 
132 55 54 145 128 146 146 132 54 
145 146 54 40 134 39 134 161 39 
150 127 149 149 134 40 40 41 149 
150 149 41 152 151 127 153 135 151 
136 153 152 151 152 153 46 135 45 
44 153 136 136 6 44 153 44 45 
45 135 153 152 42 136 127 150 152 
152 150 42 150 41 42 6 136 43 
136 42 43 154 47 133 48 133 47 
155 151 135 154 135 46 154 46 47 
156 127 151 137 156 155 151 155 156 
147 157 133 158 137 157 128 158 147 
157 147 158 155 157 137 154 133 157 
135 154 155 157 155 154 159 149 127 
160 134 149 138 160 159 149 159 160 
161 38 39 38 143 4 130 32 161 
163 162 138 161 143 38 142 33 162 
126 34 163 162 163 142 161 162 130 
160 138 162 134 160 161 162 161 160 
144 164 128 165 139 164 131 165 144 
164 144 165 167 166 139 141 35 166 
129 36 167 166 167 141 131 51 168 
140 37 168 167 168 129 5 140 50 
140 168 50 165 131 168 139 165 167 
168 167 165 163 166 126 169 139 166 
138 169 163 166 163 169 170 164 139 
158 128 164 137 158 170 164 170 158 
159 171 138 156 137 171 127 156 159 
171 159 156 170 171 137 169 138 171 
139 169 170 171 170 169 175 37 214 
186 37 5 187 36 213 35 36 187 
174 35 212 34 35 174 36 37 175 
188 34 209 33 34 188 176 33 208 
32 33 176 189 32 207 61 4 189 
189 4 32 67 66 214 173 190 191 
191 190 64 66 65 177 177 65 190 
191 64 63 65 64 190 193 173 192 
194 192 178 179 193 194 192 194 193 
194 12 179 12 194 13 13 178 1 
178 13 194 178 63 62 191 192 173 
192 63 178 191 63 192 178 62 1 
59 60 180 180 60 207 196 195 172 
195 59 180 59 195 58 196 58 195 
198 172 197 199 197 181 182 198 199 
197 199 198 10 9 181 8 182 199 
182 0 56 182 8 0 199 9 8 
9 199 181 198 182 57 172 198 196 
198 57 196 196 57 58 182 56 57 
200 179 11 12 11 179 201 181 197 
200 10 181 200 11 10 202 197 172 
183 201 202 197 202 201 193 179 203 
204 203 183 173 193 204 203 204 193 
201 183 203 200 203 179 181 201 200 
203 200 201 205 172 195 206 195 180 
184 205 206 195 206 205 207 60 61 
176 207 32 209 184 208 207 61 189 
188 208 33 174 209 34 208 188 209 
207 176 208 206 208 184 180 207 206 
208 206 207 190 173 210 211 210 185 
177 190 211 210 211 190 213 185 212 
187 212 35 175 213 36 212 187 213 
177 214 66 186 214 37 213 175 214 
5 67 186 186 67 214 211 214 177 
185 213 211 214 211 213 209 174 212 
215 212 185 184 209 215 212 215 209 
216 185 210 204 210 173 183 216 204 
210 204 216 205 184 217 202 217 183 
172 205 202 217 202 205 216 183 217 
215 217 184 185 216 215 217 215 216 
221 260 49 232 7 49 233 259 48 
47 233 48 220 258 47 46 220 47 
48 221 49 234 255 46 45 234 46 
222 254 45 44 222 45 235 253 44 
73 235 6 235 44 6 79 260 78 
219 237 236 237 76 236 78 223 77 
223 236 77 237 75 76 77 236 76 
239 238 219 240 224 238 225 240 239 
238 239 240 240 225 24 24 25 240 
25 3 224 224 240 25 224 74 75 
237 219 238 238 224 75 237 238 75 
224 3 74 71 226 72 226 253 72 
242 218 241 241 226 71 71 70 241 
242 241 70 244 243 218 245 227 243 
228 245 244 243 244 245 22 227 21 
20 245 228 228 68 2 228 2 20 
245 20 21 21 227 245 244 69 228 
218 242 244 244 242 69 242 70 69 
228 69 68 246 23 225 24 225 23 
247 243 227 246 227 22 246 22 23 
248 218 243 229 248 247 243 247 248 
239 249 225 250 229 249 219 250 239 
249 239 250 247 249 229 246 225 249 
227 246 247 249 247 246 251 241 218 
252 226 241 230 252 251 241 251 252 
253 73 72 222 44 253 255 254 230 
253 235 73 234 45 254 220 46 255 
254 255 234 253 254 222 252 230 254 
226 252 253 254 253 252 236 256 219 
257 231 256 223 257 236 256 236 257 
259 258 231 233 47 258 221 48 259 
258 259 233 223 78 260 232 49 260 
259 260 221 7 232 79 232 260 79 
257 223 260 231 257 259 260 259 257 
255 258 220 261 231 258 230 261 255 
258 255 261 262 256 231 250 219 256 
229 250 262 256 262 250 251 263 230 
248 229 263 218 248 251 263 251 248 
262 263 229 261 230 263 231 261 262 
263 262 261 267 73 306 278 73 6 
279 72 305 71 72 279 266 71 304 
70 71 266 72 73 267 280 70 301 
69 70 280 268 69 300 68 69 268 
281 68 299 19 2 281 281 2 68 
43 42 306 265 282 283 283 282 40 
42 41 269 269 41 282 283 40 39 
41 40 282 285 265 284 286 284 270 
271 285 286 284 286 285 286 60 271 
60 286 61 61 270 4 270 61 286 
270 39 38 283 284 265 284 39 270 
283 39 284 270 38 4 17 18 272 
272 18 299 288 287 264 287 17 272 
17 287 16 288 16 287 290 264 289 
291 289 273 274 290 291 289 291 290 
58 57 273 56 274 291 274 0 14 
274 56 0 291 57 56 57 291 273 
290 274 15 264 290 288 290 15 288 
288 15 16 274 14 15 292 271 59 
60 59 271 293 273 289 292 58 273 
292 59 58 294 289 264 275 293 294 
289 294 293 285 271 295 296 295 275 
265 285 296 295 296 285 293 275 295 
292 295 271 273 293 292 295 292 293 
297 264 287 298 287 272 276 297 298 
287 298 297 299 18 19 268 299 68 
301 276 300 299 19 281 280 300 69 
266 301 70 300 280 301 299 268 300 
298 300 276 272 299 298 300 298 299 
282 265 302 303 302 277 269 282 303 
302 303 282 305 277 304 279 304 71 
267 305 72 304 279 305 269 306 42 
278 306 73 305 267 306 6 43 278 
278 43 306 303 306 269 277 305 303 
306 303 305 301 266 304 307 304 277 
276 301 307 304 307 301 308 277 302 
296 302 265 275 308 296 302 296 308 
297 276 309 294 309 275 264 297 294 
309 294 297 308 275 309 307 309 276 
277 308 307 309 307 308 313 352 79 
324 7 79 325 351 78 77 325 78 
312 350 77 76 312 77 78 313 79 
326 347 76 75 326 76 314 346 75 
74 314 75 327 345 74 31 327 3 
327 74 3 55 352 54 311 329 328 
329 52 328 54 315 53 315 328 53 
329 51 52 53 328 52 331 330 311 
332 316 330 317 332 331 330 331 332 
332 317 66 66 67 332 67 5 316 
316 332 67 316 50 51 329 311 330 
330 316 51 329 330 51 316 5 50 
29 318 30 318 345 30 334 310 333 
333 318 29 29 28 333 334 333 28 
336 335 310 337 319 335 320 337 336 
335 336 337 64 319 63 62 337 320 
320 26 1 320 1 62 337 62 63 
63 319 337 336 27 320 310 334 336 
336 334 27 334 28 27 320 27 26 
338 65 317 66 317 65 339 335 319 
338 319 64 338 64 65 340 310 335 
321 340 339 335 339 340 331 341 317 
342 321 341 311 342 331 341 331 342 
339 341 321 338 317 341 319 338 339 
341 339 338 343 333 310 344 318 333 
322 344 343 333 343 344 345 31 30 
314 74 345 347 346 322 345 327 31 
326 75 346 312 76 347 346 347 326 
345 346 314 344 322 346 318 344 345 
346 345 344 328 348 311 349 323 348 
315 349 328 348 328 349 351 350 323 
325 77 350 313 78 351 350 351 325 
315 54 352 324 79 352 351 352 313 
7 324 55 324 352 55 349 315 352 
323 349 351 352 351 349 347 350 312 
353 323 350 322 353 347 350 347 353 
354 348 323 342 311 348 321 342 354 
348 354 342 343 355 322 340 321 355 
310 340 343 355 343 340 354 355 321 
353 322 355 323 353 354 355 354 353 

CELL_DATA 708
SCALARS scalars double
LOOKUP_TABLE default
1.4897416373 7.4187943216 1.0183290599 5.515177442 0.54428745328 2.0964726975 5.96441192 0.43869552865 5.2771908689 
0.56507942981 5.6761559913 0.47445814579 3.3013126313 0.082248061452 0.3940846354 3.3452389432 0.12255973126 0.053605897376 
0.14491048743 0.12175691796 0.34457167948 0.66821360215 0.269613921 0.071554651269 0.047682931236 0.075794327126 0.099290269855 
0.14007823541 0.013947434609 0.1647314095 0.072878645199 0.63040037832 0.30782994329 0.31752776685 1.0524562962 0.058884722756 
0.0753773528 0.080697855425 0.42889011685 0.06664840492 0.1076860987 0.071788532781 0.14324781515 0.074354116198 0.041578914383 
0.09310447035 0.032292046595 0.079719350921 0.069670218314 0.099771428857 0.063489409762 0.16849166069 0.078275265483 0.086697493819 
0.068993131229 0.20739161718 0.10347917859 0.069641660448 0.13195868442 0.072602967093 0.083134457684 0.047123791341 0.074690978888 
0.077346770176 0.076405178735 0.20108914327 0.12844069113 0.16409363834 0.095582344564 0.078425238897 0.093635365628 0.19893163865 
0.17295983892 0.18660745706 0.089634087581 0.41988444202 1.3446194672 0.13014212887 0.081735954122 0.99154273511 0.5105001195 
0.052044495807 0.037068786076 0.035701469797 0.15675564664 0.095780270466 0.069739497846 0.075346772465 0.075360225977 0.50058374299 
0.085133093763 0.46784587231 0.55016954887 0.035342694905 3.3194313687 0.31998120241 0.042048087734 0.10752406623 0.08304296197 
0.92763609663 0.060784976017 0.074897992606 0.33904136836 0.12456854848 0.16270776376 0.091813218494 0.086613011451 0.29067759731 
0.099910194343 0.07108284142 0.093513607115 0.14991668073 0.089106013193 0.15029264941 0.076705884379 0.075930446352 0.082911187117 
0.13120151193 0.35339784314 5.4334502177 0.30433251657 1.1473289545 0.14507702333 2.5447441164 1.0396486584 0.060113591071 
1.8546643799 0.36228166563 1.2635413016 0.26889317451 0.19021646469 -0.63820428344 0.08207313089 1.1375336832 0.0083323207859 
0.066441747067 0.030347056541 0.45182545931 -0.017823963917 0.69323884589 0.50689230919 -0.097683846933 0.12729484067 3.6306426405 
0.55985269881 0.20178112135 0.24466891845 1.5110524982 0.19974600455 1.8757348076 -0.0067130241025 0.25851168809 0.48249380784 
0.079298570639 0.076538960053 0.074674775327 0.17314381416 0.08916633379 0.036331288532 0.10479333423 0.1005849211 1.7312600639 
0.30553211144 0.11325308967 0.29263965854 0.56790603483 0.099694445296 0.090063227123 0.10028826786 0.15436261388 0.10063146287 
0.075727130604 0.83093882538 3.2185489849 -0.26948419091 0.37304873399 3.4641032926 0.087091614664 0.01429651722 0.32989507586 
1.479560242 -0.041981360634 0.19805658706 -0.020323619856 0.36654035694 0.67751889414 -0.029695185358 -0.43808969184 0.13998940714 
0.097348879878 0.051696342181 0.029543915268 0.095413658383 0.1133941205 0.38488273896 -0.045306747464 0.10012109141 0.67131492172 
0.17173116342 0.091833386013 0.10834019403 0.097664641583 0.072279189988 0.12897914611 0.29049239121 0.35046554613 0.5582315041 
0.073576306979 0.043059503577 0.086218830169 0.2312549477 -0.075313135051 2.2863694041 0.19174266384 -0.0037643913878 0.16465528193 
0.13524736553 0.096435312531 0.065140643944 0.46605608903 -0.3640125311 -0.013563310831 0.48700309202 -0.056203050498 0.14600426569 
0.066833699704 0.37917324302 0.32004919824 0.35783529805 0.32407060779 0.20316351512 -0.014130849973 -0.022651527451 -0.022857173385 
-0.023269733691 0.27291940724 9.0352540354 1.0101543665 9.0550892359 2.9346127156 9.648927119 7.8280993569 8.4560491788 
7.8936158655 9.3757909661 9.659089049 2.6293074575 9.9058944469 2.9117792048 0.35175434024 9.989851912 9.999726092 
9.1405997231 9.9586071653 9.680247239 9.3329484078 1.8648018828 10 10 10 10 
9.9999995827 9.9999996974 9.9998643202 9.9999997506 8.6292959139 10 0.90841486209 7.0922339935 8.5440422912 
9.9999934687 9.999996317 10 10 10 10 10 10 10 
10 9.9999996771 9.9999995446 9.9999999414 9.9999997023 9.9999995651 9.9999996735 9.9999999674 10 
9.9999999625 9.9999999846 9.9999999747 9.9999999462 9.9999995973 10 9.9999999643 9.999999954 10 
10 10 10 10 10 10 10 10 10 
10 10 10 10 10 9.99999996 7.7260963232 9.7337910794 9.9999942677 
8.0940045782 9.765602563 0.088093434727 9.6544534195 9.7392621106 10 9.7926064717 9.9997401967 9.6824445962 
0.86855639079 9.8034325826 10 9.681059422 9.8128534156 9.9980296306 9.968686331 2.2825554317 9.9991369531 
9.9958224596 9.9908382071 0.95129562723 9.6799772274 9.789596468 9.773083987 10 9.7284589683 9.7832015459 
10 10 10 10 10 10 10 10 10 
10 10 10 0.042196048496 0.35968977878 0.06730522475 1.0961715913 0.023056012441 4.7885698715 
1.2176769822 -2.5320748804 4.1974357762 -3.6996020979 4.2131625451 -6.0002055925 2.2050837478 0.14947650823 0.002078783837 
-3.4188624329 1.6863884848 0.21222680758 0.82388295338 1.3032927783 -0.024055211957 -5.611546461 -2.1967203866 -4.6257653404 
-4.6644037755 -5.1538952204 -5.2654788715 -7.123429593 -2.8912567206 0.071579595633 -5.3464994972 0.051380630095 0.044207190983 
1.0486571383 2.9642518376 1.8560327209 -5.5961840833 0.1754918262 -0.61668113248 0.3473542557 -3.8468130169 -4.5699476089 
-4.2886328334 -4.0300507033 -6.9193565349 -3.8351907876 0.062733466862 -5.5173037785 -5.1926645866 -4.6594703073 -1.686840353 
-5.2740064269 -1.9233143567 0.34676591965 0.097289888088 -7.7571330657 -7.604256098 -3.4893133975 -7.1964958282 -9.6533843034 
-4.5919842727 -6.0889500001 -4.1329697479 -3.9913742804 -5.6963581729 -4.8716531934 -4.044962731 -5.315451351 -5.1806394807 
-5.0488785585 -6.1991334506 -4.0925132992 -6.0649589092 -5.0057610273 -4.7105031314 -1.5340781824 0.042136865927 -5.9739012108 
0.14583707322 -0.032878850727 -0.024946218118 -7.974500874 -8.242638244 -4.261659963 -2.2946694734 -1.8213344979 -4.9159215763 
-4.554211987 -5.3907313584 -5.0877823059 -3.8395546533 -4.1143436971 -4.3048714427 -4.9026699998 1.1616692551 -5.3481902973 
-3.2734446926 2.1570248108 0.41725019777 -3.4919046306 -3.5693259738 -3.4161381112 -6.3080874749 -3.041015035 -8.4890435225 
-3.449487334 -4.4608977361 -6.1414978198 -5.2360901491 -6.1792941024 -4.3789001727 -6.1281104032 -4.8122855001 -4.6465156961 
-5.5056755199 -8.3053614951 -4.0167513902 -4.5304236895 0.17467562078 3.8092528261 0.12069573195 0.24019802611 0.34617632679 
0.23642718872 0.19760140039 0.047064662852 1.1328202857 2.5570306909 4.2584562798 0.20497477764 0.12846170871 0.19964671699 
0.075500966472 0.09545733226 1.6806317611 0.16511012218 0.20037503889 0.21608299816 0.068664866584 0.088296977043 0.083705383817 
0.1439754538 0.36799921762 0.14276867065 0.078646493402 0.25707994096 0.25963570259 0.2748796868 0.29486194346 0.06760557483 
0.26213044509 0.13118163567 0.17076963975 0.45970947285 0.073702509555 0.083782111544 0.080106310538 0.38017577948 0.16477692876 
0.098348755932 0.16546474343 0.073633067683 0.077893033995 0.11203868387 0.1326565569 0.087170450883 0.15442649922 0.14306485063 
0.20607508277 0.097209916821 0.076934039229 0.15440982814 0.14258785075 0.090334794578 0.086023459168 0.1984930922 0.10828407493 
0.17569228987 0.15645961305 0.037769675145 0.072715566909 0.15491405561 0.1150736364 0.20049573872 0.077426989249 0.10890396819 
0.073584522794 0.1701696692 0.036039199557 0.046752952189 0.10731629897 0.055665190785 0.073751884745 0.07561286104 0.56980074298 
0.18758226287 0.080382059841 4.9191243363 0.052797904083 0.082339878575 0.098347290993 0.095672827832 0.2275286011 0.16985846941 
0.30198565001 0.17351426543 0.33649615598 0.088564901015 0.12538865923 1.1088497164 0.15774494042 0.074731308932 1.662571451 
0.2036369812 0.071197120739 0.10512065263 0.11661001163 0.075706497575 0.077877124354 0.244054828 0.080733399039 0.07335993011 
0.27727567381 0.19627946767 0.1026676678 0.18786098259 0.10963445526 0.22916236587 0.073785575032 0.072296602219 0.095660985879 
0.10841460695 0.058526674704 0.094205869322 0.13165485701 0.092285932204 0.091330057159 0.82827767266 1.1448830361 0.506624858 
0.0072750278117 0.22735968269 1.4854476086 0.65986320235 0.51665712849 0.18155512375 0.48837058875 0.034580882591 0.032934581408 
8.6419944398 0.075572990948 0.10739434286 0.59267904032 -0.11205675386 0.12830622442 -0.096941873636 0.27490105663 0.060486821409 
0.031673052798 -0.048704243371 0.22380307588 0.16551222185 0.060117633648 0.078001384242 0.21524911292 0.064283605028 0.021122695976 
0.065765717745 -0.18468792984 0.072860226165 0.1376666823 0.5362855303 -0.074607492017 0.027298611354 -0.008216651967 0.55542257908 
-6.1184302633e-06 0.16223380252 0.048617917312 0.18600780149 0.039324154157 -9.6948709939 0.080178351737 0.10485420506 0.05000063528 
0.54540665543 0.03740687988 0.044565809911 0.043306418041 0.24378612276 -0.061842928899 0.067470724393 0.062748751936 0.15443779176 
-9.2828792461 0.12061451523 0.44022309176 0.071346513447 0.37043736338 0.11930739222 0.12577397521 0.26325991056 0.023955267551 
0.27098634859 0.12978175302 0.62305460464 0.10807792011 0.18697485772 0.26398480302 0.60178841346 -0.030294460226 0.12468505689 
0.16846760566 0.23840612677 -3.1096086628 0.035859096944 0.86570385392 0.1217340845 0.10435019632 0.090454867651 -0.0070617884818 
0.44622441894 0.12972610481 0.18181188028 0.28358456666 -0.042395110802 0.87724641942 0.050481130815 0.37671130384 0.61854517037 
4.1948729416 0.69653684864 0.013760999862 0.13457664454 0.11179569572 -0.13073705456 1.5505871422 0.71271577877 0.3369175284 
-0.00062450532876 1.4958978581 0.86290663168 0.01991430431 -0.0089752659891 0.12804811122 0.22995460437 0.9582326596 0.30293324485 
-0.036632779341 0.018599631709 0.042622363088 0.18698486934 -0.0044035298908 -0.046110789821 
