# vtk DataFile Version 5.1
vtk output
ASCII
DATASET POLYDATA
POINTS 356 float
0.260406 0.283588 0.100608 0.213254 0.271552 9.48843 0.24067 9.33967 0.170482 
0.238047 9.46832 9.25795 9.34326 0.229629 0.0140814 9.43367 0.240811 9.70082 
9.4985 9.19234 -0.0525541 9.42659 9.23699 9.40166 -0.375463 -0.0283559 1.06843 
-0.312356 -0.0948139 2.72502 -0.105423 0.0130846 4.21808 -0.232429 -0.0248901 5.7525 
-0.396586 -0.112355 7.34254 -0.266297 0.0185848 8.81895 -0.218458 1.2304 -0.313095 
-0.155706 2.71838 -0.4756 -0.459385 4.48352 -0.421088 -0.350284 5.59889 -0.349316 
-0.468827 7.28225 -0.1927 0.0466345 8.60604 -0.144829 -0.0311643 9.45724 1.32331 
-0.193869 9.55466 2.82231 -0.186771 9.30811 4.26319 -0.0711408 9.42066 5.69172 
-0.172505 9.57244 7.14807 0.0243267 9.43439 8.49251 -0.373526 1.24491 9.6251 
-0.22039 2.62994 9.51828 -0.35888 4.46036 9.47782 -0.323431 5.53239 9.47677 
-0.400576 7.34205 9.34779 -0.127586 8.7461 9.59598 9.56136 -0.169733 1.11175 
9.45798 -0.246363 2.65755 9.57327 -0.193666 4.16348 9.45038 -0.208046 5.77215 
9.63524 -0.304621 7.30637 9.74305 -0.241784 8.89005 9.57308 1.15274 -0.0775571 
9.55343 2.61713 -0.501089 9.51021 4.44445 -0.278139 9.48024 5.49388 -0.437246 
9.69161 7.42366 -0.192504 9.48937 8.61069 -0.283846 9.6427 9.35802 1.18865 
9.47372 9.13612 2.66465 9.55479 9.2776 4.15025 9.51695 9.40874 5.79044 
9.44683 9.6061 7.35445 9.63905 9.49577 8.65217 9.45552 1.31097 9.5256 
9.62445 2.66115 9.6197 9.45121 4.25336 9.4236 9.4714 5.61872 9.578 
9.70414 7.22117 9.48929 9.61396 8.60605 9.859 1.3562 -0.0704348 -0.108673 
2.81922 -0.295888 -0.0728836 4.56344 -0.202386 -0.0025008 5.87255 -0.30356 -0.13816 
7.38408 -0.21342 -0.263971 8.55799 -0.0484829 -0.0138701 1.33928 -0.0628539 9.62869 
2.83055 -0.390915 9.62316 4.51406 -0.029841 9.5334 5.76561 -0.044402 9.75678 
7.53924 -0.347765 9.7247 8.53331 -0.124765 9.66924 1.15057 9.37239 -0.352048 
2.65216 9.55019 -0.202048 4.36778 9.33203 -0.154189 5.84579 9.57346 -0.330823 
7.41136 9.64678 -0.485068 8.82605 9.47677 -0.37329 1.1768 9.39447 9.71118 
2.71117 9.64139 9.65887 4.47126 9.41968 9.46569 5.83255 9.37364 9.33011 
7.446 9.44774 9.58516 8.89405 9.43498 9.69196 -0.588322 0.401327 4.9675 
-0.948587 5.80062 1.6856 -0.845188 5.83647 8.15299 -0.635891 0.419536 8.16487 
-0.505148 0.407256 1.8422 -0.808049 3.11307 9.16601 -0.353874 8.47114 9.13504 
-0.523488 8.56241 6.60225 -0.754107 3.15793 0.277528 -0.411893 8.53783 3.34607 
-0.450825 8.53045 0.303315 -0.978132 5.80452 4.9818 -0.727081 2.96625 3.36496 
-0.841874 2.96642 6.66796 -0.0909103 0.56375 9.13179 -0.448778 0.362655 6.47961 
-0.373967 0.493709 3.45723 -0.232292 0.482956 0.477128 -0.82389 4.58321 8.83409 
-0.853173 6.0242 9.19462 -0.867961 7.26386 8.72477 -0.985131 7.24354 7.37946 
-0.542006 8.59014 8.08042 -0.712033 4.60374 0.832224 -0.819872 6.04387 0.273167 
-0.894022 7.28868 2.58321 -0.764805 7.25055 0.96144 -0.603998 8.65203 1.77786 
-0.534645 8.6055 5.06266 -0.709929 7.25386 4.23168 -0.838268 5.80444 3.3634 
-0.705657 7.2602 5.75174 -0.94153 5.78926 6.57021 -0.958345 4.34604 2.54498 
-0.891574 2.92079 1.59907 -0.839872 1.31099 0.749296 -0.93589 1.14842 2.60155 
-0.706991 1.24813 4.19526 -1.09401 4.37463 7.46558 -0.907683 3.00656 8.32332 
-0.700863 1.21278 5.78659 -0.953471 1.158 7.3443 -0.85599 1.39324 8.94557 
-0.872849 2.88914 4.98889 -0.72706 4.38497 5.76057 -0.694287 4.36418 4.23505 
9.38589 0.439488 4.91758 9.7556 5.81341 1.79586 9.748 5.8163 7.98787 
9.6241 0.449066 8.01417 9.79822 0.449386 1.77534 9.4238 3.40959 9.05359 
9.58969 8.3585 9.10687 9.74398 8.4813 6.49816 9.65205 3.17549 0.459934 
9.81034 8.46327 3.39154 9.62989 8.44147 0.368503 9.26337 5.80746 4.96989 
9.51628 2.98033 3.3695 9.58852 2.96439 6.59575 9.65671 0.627379 9.2615 
9.53792 0.451515 6.61274 9.6585 0.484635 3.51706 9.98287 0.5679 0.448284 
9.96528 4.66152 8.9645 9.63396 5.9267 9.09105 9.84659 7.10504 8.52958 
9.58415 7.16506 7.18927 9.84573 8.45726 8.04999 9.85623 4.63103 0.829006 
9.6138 5.98598 0.475352 9.66491 7.14776 2.58573 9.86424 7.21122 1.0625 
9.86167 8.53625 1.79537 9.47307 8.55003 4.95195 9.78043 7.1901 4.21103 
9.51344 5.78262 3.38114 9.70698 7.19381 5.80857 9.5598 5.73233 6.53444 
9.39313 4.40649 2.52556 9.87653 3.02735 1.83602 9.82823 1.42794 0.894419 
9.59217 1.28514 2.57483 9.64895 1.40226 4.16185 9.43298 4.39684 7.49331 
9.82713 3.04467 8.15628 9.68266 1.33648 5.76709 9.78925 1.26419 7.35681 
9.95111 1.30746 8.74743 9.30215 2.96658 4.96477 9.40764 4.35642 5.82446 
9.47087 4.41634 4.20573 4.15782 -0.868287 1.63457 4.16763 -0.824639 8.36886 
9.22525 -0.835948 4.9988 8.98509 -0.288008 8.14082 9.34865 -0.9272 1.77072 
6.68974 -0.552915 9.53449 1.42016 -0.337822 9.32708 1.34568 -0.546413 6.62398 
6.77889 -0.605412 0.46636 1.39802 -0.550802 3.35244 1.40749 -0.393605 0.224328 
4.19391 -0.906192 5.01675 7.03652 -0.7791 3.35517 7.04164 -0.874838 6.63819 
8.90743 -0.121668 9.32662 9.04671 -0.56337 6.54827 9.36187 -0.918577 3.41221 
9.06362 -0.292023 0.40208 5.47433 -0.681137 9.19099 4.10028 -0.612492 9.46241 
2.83696 -0.686673 9.0715 2.71596 -0.932271 7.46327 1.37157 -0.569721 8.28443 
5.42308 -0.732658 0.806324 4.03915 -0.699808 0.40581 2.6968 -1.01899 2.51486 
2.78089 -0.755873 0.930818 1.32703 -0.557794 1.75409 1.20415 -0.624731 5.00887 
2.75458 -0.753505 4.23116 4.18726 -0.847557 3.36846 2.76291 -0.720024 5.7566 
4.21259 -0.837349 6.63186 5.63849 -1.05259 2.49625 7.03335 -0.837141 1.62089 
8.43283 -0.72478 0.824617 8.61223 -0.854851 2.6327 8.62275 -0.606479 4.15294 
5.6309 -1.05451 7.48205 7.02901 -0.819696 8.35393 8.54815 -0.651431 5.80061 
8.73212 -0.896145 7.35578 8.57622 -0.754944 9.01344 7.12997 -1.074 5.02256 
5.60192 -0.692024 5.76142 5.63351 -0.675875 4.20025 4.21055 9.44861 1.73893 
4.15695 9.824 8.1571 9.27582 9.60533 4.99795 9.33439 9.84903 8.04921 
9.24002 9.72785 1.81474 6.77364 9.83578 9.03417 1.39623 9.6783 9.07911 
1.33037 9.63079 6.58119 6.83785 9.65447 0.636311 1.36215 9.73037 3.4123 
1.33406 9.81202 0.42503 4.24816 9.46718 4.97696 7.00369 9.70744 3.39669 
7.09334 9.55191 6.63494 9.18254 9.70639 9.15492 9.38892 9.7077 6.5712 
9.42332 9.7935 3.44822 9.27393 9.56057 0.411381 5.36723 9.71314 8.80384 
3.92736 9.787 8.96273 2.72981 9.684 8.73875 2.82769 9.8589 7.41519 
1.36732 9.85612 8.06724 5.44253 9.73803 0.840072 3.96442 9.97086 0.586147 
2.83593 9.74265 2.55697 2.75732 9.73122 1.027 1.32908 9.52969 1.84363 
1.31794 9.64468 5.0082 2.74075 9.40012 4.19522 4.201 9.59971 3.40515 
2.78698 9.69467 5.79694 4.19778 9.31504 6.64633 5.61742 9.52455 2.53799 
7.03391 9.80389 1.75477 8.5147 9.90577 0.90138 8.58966 9.63676 2.67274 
8.70662 9.59976 4.1858 5.61219 9.84112 7.33683 6.93274 9.71578 8.06828 
8.8188 9.78492 5.80582 8.80157 9.95321 7.29653 8.61087 9.89071 8.75226 
7.00506 9.57506 4.95836 5.58937 9.51218 5.78143 5.64002 9.22057 4.15616 
1.70763 4.20789 -0.916722 8.157 4.18441 -0.945099 5.11967 9.18044 -0.629638 
8.16831 9.13308 -0.595448 1.88114 9.2476 -0.854848 9.18798 6.80018 -0.808984 
9.20778 1.4798 -0.492188 6.66069 1.31402 -0.536893 0.2947 6.82123 -0.640739 
3.47095 1.2763 -0.708647 0.34719 1.50642 -0.312429 4.96323 4.19508 -0.717946 
3.37208 7.0967 -0.924803 6.6259 7.03624 -0.736676 9.18153 8.87098 -0.275126 
6.55756 9.07709 -0.618169 3.45018 9.18215 -0.766141 0.347646 9.12397 -0.555834 
8.81936 5.44432 -0.74644 9.11762 3.91442 -0.938454 8.68335 2.75825 -0.648573 
7.31779 2.72522 -0.985686 8.12799 1.36239 -0.787819 0.784753 5.40558 -0.86638 
0.338078 3.92816 -0.67413 2.53577 2.73549 -0.809423 0.904118 2.70228 -0.808967 
1.74514 1.30268 -0.686967 4.95321 1.2568 -0.671626 4.22303 2.7879 -0.728235 
3.40808 4.21298 -0.980119 5.78005 2.74407 -0.846573 6.63532 4.19462 -0.665688 
2.52241 5.60339 -0.789176 1.68455 6.98027 -0.905502 0.919552 8.54737 -0.779824 
2.60926 8.52958 -0.632684 4.21077 8.5464 -0.736638 7.40026 5.65619 -1.05569 
8.30163 6.99626 -1.01578 5.812 8.51764 -0.831032 7.30632 8.53673 -0.97817 
8.98753 8.5392 -0.878344 5.02913 7.00454 -0.845895 5.7825 5.57323 -0.893887 
4.17465 5.66018 -0.670972 1.75291 4.14867 9.53205 8.10823 4.18226 9.72776 
5.14484 9.13002 9.99185 8.20419 9.10076 9.82245 1.9942 9.06263 9.67166 
9.14641 6.62081 9.8357 9.01219 1.4953 9.8274 6.53883 1.2764 9.58941 
0.378439 6.74986 9.88431 3.49566 1.36679 9.78238 0.494786 1.40374 9.79834 
5.02221 4.24898 9.51512 3.3679 6.95964 9.47861 6.63912 7.00609 9.59834 
9.02225 8.86193 9.4409 6.54933 9.24328 9.9967 3.46108 9.06139 9.68725 
0.632265 9.02207 9.54975 8.72324 5.31675 9.66562 8.9986 4.01657 9.88346 
8.51863 2.71033 9.69493 7.2546 2.73132 9.825 8.01026 1.3981 9.84771 
0.93022 5.38323 9.53184 0.484527 4.03127 9.7304 2.55609 2.75444 9.82458 
1.00111 2.81392 9.77911 1.73797 1.35169 9.67193 5.06221 1.35111 9.73603 
4.11603 2.78997 9.39755 3.36253 4.21713 9.42914 5.80534 2.79227 9.6018 
6.62989 4.19074 9.30168 2.60135 5.62175 9.69362 1.72123 7.02326 9.65901 
0.966104 8.52513 9.98761 2.66044 8.44804 10.1079 4.30491 8.5074 9.73186 
7.35531 5.55704 9.73844 8.12645 6.89646 9.75722 5.84411 8.48934 9.56027 
7.36324 8.63704 9.84945 8.82034 8.47515 9.85983 4.99609 6.98301 9.73642 
5.81218 5.60583 9.2863 4.17946 5.62109 9.2566 
POLYGONS 709 2124
OFFSETS vtktypeint64
0 3 6 9 12 15 18 21 24 
27 30 33 36 39 42 45 48 51 
54 57 60 63 66 69 72 75 78 
81 84 87 90 93 96 99 102 105 
108 111 114 117 120 123 126 129 132 
135 138 141 144 147 150 153 156 159 
162 165 168 171 174 177 180 183 186 
189 192 195 198 201 204 207 210 213 
216 219 222 225 228 231 234 237 240 
243 246 249 252 255 258 261 264 267 
270 273 276 279 282 285 288 291 294 
297 300 303 306 309 312 315 318 321 
324 327 330 333 336 339 342 345 348 
351 354 357 360 363 366 369 372 375 
378 381 384 387 390 393 396 399 402 
405 408 411 414 417 420 423 426 429 
432 435 438 441 444 447 450 453 456 
459 462 465 468 471 474 477 480 483 
486 489 492 495 498 501 504 507 510 
513 516 519 522 525 528 531 534 537 
540 543 546 549 552 555 558 561 564 
567 570 573 576 579 582 585 588 591 
594 597 600 603 606 609 612 615 618 
621 624 627 630 633 636 639 642 645 
[...]
CELL_DATA 708
SCALARS scalars double
LOOKUP_TABLE default
-4.0102659988 -0.90468289474 -3.9590935617 -3.1170098081 -3.5047499665 -7.1700082662 -5.5784729103 -4.3691251178 -2.8791627211 
-4.5241921888 -3.2272364298 -3.8779701531 -4.935886127 1.3352811847 -0.19268823284 -2.0533993915 -0.21064957876 1.2615829849 
0.45440666627 0.27286870209 -0.50890260979 3.2498438836 3.2091829942 2.7409264118 4.9468673567 3.3690897909 4.8801398606 
4.7848457217 4.7370917297 1.1030694092 -0.13884736945 1.4283966592 2.0670833276 -1.2174802932 -1.1012591964 -1.1662793745 
1.0747410958 1.0840329128 -2.446949907 0.85350980825 2.8281991939 1.7982572575 1.6071063889 2.312335365 5.246936137 
6.0746463142 5.2709651229 2.7444712458 1.108642194 0.88282465991 1.8025208478 -0.0020067212413 4.4040781959 2.8399697074 
4.8257182593 3.758214657 2.9744627114 3.6696938707 4.7413333256 -0.029918872867 1.384526682 0.21236631189 2.3965979324 
1.7147642469 -0.64666990448 0.64124296364 1.8296270273 1.3157088929 1.7468494552 1.2724023159 -0.84550739661 0.64157143395 
-1.0939267365 0.43731117552 -0.18593255475 -5.5565747291 -3.2261769043 0.55394470386 -4.3862660406 -4.1252924198 -4.1845998173 
-5.2064277994 -4.3445094959 0.76038410684 0.20712476758 -0.045358266015 0.81709046299 -1.5664770405 0.15372051174 -0.11139035403 
0.01060706799 -3.5033323577 -4.0146978892 -3.985616036 -0.89371664214 -2.9540602625 -2.9591969807 -5.2501221415 -5.7752955435 
0.12842153759 0.4633223036 -0.080861039304 -1.3811415148 -0.91397678696 -0.56037806316 -1.013143944 -0.55584884329 1.4192111583 
-1.6285389228 -0.27891471818 -0.73187373855 -1.4998425963 0.45349892701 -0.053113691965 -1.8402117266 0.76542421998 0.8971294333 
1.0863961787 -1.5140681359 -0.78225947286 -0.87671124237 0.19140059442 -1.4675557526 1.9816875435 0.81273542456 -0.471225614 
-1.8830047151 -0.66091164928 -3.9572424711 -0.8363854786 -6.9038445741 -1.4153005645 2.4555319411 1.9092136034 0.75261747587 
-2.8408725024 -1.2639225477 -0.9024206534 0.055949044075 0.86511246583 -1.5488188285 -0.68420698605 2.1456769005 2.9598150389 
2.6014886454 0.77239385835 0.53830780342 0.80428447439 -1.2343562637 1.4197113812 -1.0189065009 0.38602247462 0.65018718027 
1.5378406493 -0.60925012903 -0.17535951156 1.1978756762 -0.091911545356 -1.2564861561 0.9354677897 -0.68131771839 3.7015327323 
1.3637412646 1.0082037781 3.6250596029 4.8985067291 1.2303408539 -1.4136267827 -1.2550029559 -0.9676770763 0.62076953167 
1.5277837473 1.1263331117 2.4661231716 -0.67780681016 1.1528720012 -0.79579948883 -0.21944738206 -2.7093405526 -1.4809731337 
-0.75042624737 -1.9208393083 0.42922685115 -0.56799797118 -3.2858751024 0.625497243 1.0860554446 1.97069247 -1.198382124 
-0.9444680162 2.1774438554 1.8884648014 -0.56013752941 -2.2997553034 -1.8508568609 0.63565131819 3.2838004098 -0.94313994844 
-0.45236066931 0.3743476634 1.0205483965 -0.62626933908 0.61058082516 -1.060042793 -0.96287313802 2.0404015102 -3.1563474544 
0.97523325976 0.89341049405 -1.4865985095 -1.0087413377 -2.3083299469 2.4580197835 -0.84414035711 -2.7635648335 0.63464139819 
0.40752723406 1.8176643712 0.47869417461 0.31194822373 -2.8661993501 1.433946176 1.4906091088 2.2198611209 1.1904511248 
-1.763751658 -0.1229218484 -1.0348939262 0.58603476374 0.62355705283 -1.7548489843 -0.58717053942 1.2407293165 -0.4584958057 
0.32169942132 -0.97295607436 -8.830569421 -8.1672606065 -8.3238124361 -8.4551911971 -7.6656588849 -4.0772578001 -9.9900385911 
-7.2639857284 -2.1462449929 -7.154479123 -2.2629053427 -8.633824343 -6.6206019812 -6.3640054872 -7.00720172 -9.817643741 
-2.4155256118 -5.0470999099 -6.1627206805 -1.8436800576 -6.1934956191 -9.8805527414 -9.5538920638 -9.6400864892 -9.7321596203 
-9.6934003936 -9.4629143916 -7.8387577768 -9.3856685606 -7.5047473563 -9.8171084176 -8.7436611856 -8.7790004109 -7.440995732 
-8.8588481467 -8.9186642624 -9.9038739077 -9.06511502 -8.8251905466 -7.2810351659 -9.8650521945 -9.4436661665 -9.7350963469 
-9.5856647472 -9.4975500958 -9.6073142678 -6.9946867925 -7.6494001087 -9.5761832314 -9.6466126967 -9.0843535817 -9.9081451735 
-8.9893692974 -6.7362923582 -7.2164177524 -9.3349457625 -9.5883202047 -9.5704492199 -9.1528825031 -9.1059700386 -9.9403632461 
-9.9563629621 -9.8803101732 -9.7234621334 -9.933358707 -9.9762292099 -9.9232010027 -9.9281196664 -9.945839021 -9.9215188857 
-9.9718113731 -9.8278596576 -9.778959173 -9.8446254579 -9.8126899186 -7.7351331306 -6.5046362052 -9.8660061481 -7.8125707885 
-6.7640234617 -8.0665601944 -9.5642657394 -9.8541283719 -9.9890507866 -9.812547483 -9.9646466149 -9.7712184562 -9.8880075865 
-9.7235403226 -9.7597407834 -9.852404033 -8.8476617244 -7.5030549971 -8.7754719683 -8.1837280058 -5.4992923791 -5.1291183949 
-8.6771739252 -5.8331631051 -9.7715130189 -9.9914850494 -9.9633540289 -9.510907993 -9.6747483673 -9.6365203396 -9.5632867763 
-9.7851670205 -9.8818115942 -9.9078651869 -9.782679989 -9.7473345684 -9.8977703459 -9.9120628397 -9.7639547026 -9.8803832099 
-9.7207742863 -9.7547790304 -9.6830093022 8.7162890827 5.796379593 8.8082285485 4.2096193713 8.772965256 7.0580216786 
5.7910686046 7.9063767265 1.5748049138 7.8641057922 5.7155231701 9.0219738185 7.7779255643 6.6254296704 8.965499321 
9.9637320421 8.5206452735 7.2068039884 7.5291002258 8.7171385237 8.6781749796 9.9079769123 9.8432549082 9.8666372413 
9.8911944771 9.8469365209 9.5670125925 9.8410246165 9.5386414226 9.2056168354 9.9578711481 9.9889357598 9.9461052332 
9.2040185426 9.9822727328 9.8776915128 9.1424655423 9.9128404262 9.6339821076 7.9478387985 9.7981307476 9.888951031 
9.8042914785 9.9017358082 9.7068672147 9.7306476686 8.6329778891 9.1780811423 9.9733032085 9.9003373487 9.8049440596 
9.0828133649 9.6411284859 7.8246906241 8.7458089927 9.8795282264 9.9087817432 9.7115658236 9.6985024786 9.8010777654 
9.8350984979 9.922904938 9.7883197523 9.9051029814 9.7415238111 9.3078877577 9.4302382755 9.8198047017 9.9920108571 
9.7781537371 9.8112841855 9.8191192551 9.8952231763 9.8494962207 9.835716543 9.4848825651 8.5879376816 9.9834930056 
9.3204511665 7.1478872313 9.1047996751 9.7435167989 9.8744165031 9.9563385853 9.854636342 9.8861533722 9.9475872091 
9.8450274098 9.8895849325 9.9468173951 9.7614214747 8.54126745 8.5066087142 9.5699628985 8.4708885106 9.3341007941 
9.9194799548 5.9422364269 8.9695681696 9.9010682026 9.7517776645 9.9300928668 9.7831374205 9.92045624 9.9614407142 
9.9199235354 9.7394520973 9.2880370944 9.9241516985 9.4647421325 9.5374643609 9.7324520124 9.9590919625 9.7028346943 
9.8215333376 9.5211108386 9.9925489964 9.727307801 4.7979379886 1.3645331362 4.1289386213 3.7718328289 4.2013637383 
7.9855211197 3.7088034254 4.8022175862 9.0305714547 3.0732218343 9.3602954412 4.3808112014 3.4184434251 9.285055635 
0.79078088192 1.3288713263 2.24225085 -0.052805794528 -1.5745080044 0.8783405549 -1.235054811 -1.1162522719 -0.092435940697 
-2.3241018795 0.015061451589 -2.446938723 -4.0793249009 -3.5575884464 -3.9381471464 -2.031649105 -2.2299614346 -0.55752928138 
-2.8222048284 -2.3086566339 0.47189177251 0.95495519152 -0.80320586734 0.016384931957 0.97680469475 -0.26756191877 -0.72016267591 
-0.77634328583 -2.5159991068 -0.85961121111 -3.94884961 -3.014406013 -3.2606290531 -2.9097189226 -3.7925145521 -3.6865795879 
-2.4640525028 0.25345613112 -0.33837857693 -0.25524039659 -1.1070029365 -2.7723530719 -2.0699966001 -0.37406582847 -4.2054046696 
-3.8589962186 -0.93213118942 -0.79510796802 -1.4488094542 -2.6348099308 1.0560989281 1.2963759045 1.7341062919 0.4642122512 
-1.6181948629 -0.25204287656 -0.73788114421 0.69899443877 0.87786716355 -0.87423066854 -0.53581181234 2.463833319 5.0757467315 
1.6567618147 -2.7433167781 3.6808922065 6.033721853 -1.2137158682 -2.1736991098 1.8733884325 -0.11907624446 1.2194566477 
0.38978688299 1.364636411 -1.0061614951 -1.0347604298 -1.1564337398 4.2893588001 3.918027987 4.5975761533 0.59049057992 
3.8921683775 4.8606024576 3.5186675522 6.537290844 -0.12990817958 -0.83038304814 0.62486229148 2.3937530184 -0.25763026122 
0.98439386861 0.39852953869 1.6678031751 -1.6501537729 -1.4461217632 -2.1443891791 -1.3258513936 1.2092609373 1.1256426766 
1.7581840241 -0.43367328225 -1.5296838911 0.68498198853 -0.40169700958 1.6336780336 -3.032990377 2.5699053688 9.5535280932 
2.0111041319 9.0963485277 4.694721976 2.580865397 2.2026882326 3.4934093473 -0.2512103412 3.6966904937 4.6899687752 
2.1645834583 -2.5506496347 1.331704456 2.5559566461 -0.34368455106 -1.8686366128 1.6216241354 -1.1325681358 0.063815146892 
1.1209975695 -0.7743505776 0.75450365557 -0.23268985006 -0.90381666596 -0.98668605627 -1.0602286704 -1.2417315803 -0.73451731607 
1.374730674 -1.6404756695 1.1844630774 0.3619925867 1.1626610698 0.96809091825 -2.7734522768 0.024156928333 2.0225974858 
1.9354082629 -0.72210370066 -0.22411823878 -0.89359239225 -1.1931064688 -0.58153997568 -2.2597095863 -2.1674216906 -0.29755809714 
-0.66747276637 0.92683273255 1.0075056437 -0.46525791651 -0.0054909024907 0.98425879788 0.66125026086 1.0490909919 1.4573315184 
-1.5586055172 -0.74144571514 2.3374330109 -0.4886812941 1.1594369054 -0.83093021716 1.31090725 2.2104144843 2.8301721431 
-0.054494036783 0.4063168922 2.4823426954 1.5265456286 -0.58422021664 -1.6969391015 0.94779777825 -0.32975122675 -0.95963928888 
2.653912331 -2.8759584535 5.8726879313 3.3479824963 3.2531602875 3.6934154699 5.5378507044 -3.5189627661 -1.1890255969 
-2.512238691 0.23615695813 0.45256528137 -0.95992170094 -0.40489226761 -0.7120977145 1.8312025436 3.2008454155 -3.9980707086 
0.71171477151 0.080266765324 0.59105402388 4.7422267429 7.5819525705 -0.27757885731 -1.0195848905 -0.58877824406 -4.8598998098 
0.69772242709 -0.67372010672 0.53412072631 -0.46852644148 -1.5760014719 0.88292197925 -1.5284626471 0.019719888729 1.5272014787 
-1.4815845053 -0.3681958668 1.754660111 -2.485002547 -2.6398726943 -3.2140977585 
