# vtk DataFile Version 5.1
vtk output
ASCII
DATASET POLYDATA
POINTS 356 float
0.43519 0.55541 0.205704 0.548494 0.56455 8.71351 0.675136 8.4143 0.268337 
0.829534 8.30154 8.55114 8.73321 0.622446 0.151436 8.49465 0.953066 8.58619 
8.65619 8.31951 0.408279 8.54468 8.27255 8.73826 -0.232587 -0.0916968 1.10378 
-0.579849 -0.286147 2.47488 -0.674586 -0.403165 4.13642 -0.719268 -0.397229 5.69817 
-0.535597 -0.0922749 7.02947 -0.0281837 0.108808 8.01749 -0.15465 1.23359 0.0746579 
0.0290276 2.50763 -0.459448 -0.286045 4.11111 -0.34588 -0.461396 5.76523 -0.506485 
-0.367504 7.1144 -0.275659 0.520082 7.80384 -0.0597342 0.367103 8.54087 1.29926 
-0.0317358 8.79984 2.67368 -0.0770557 8.74972 4.23639 -0.0429468 8.85156 5.54338 
-0.0740275 8.72785 6.87161 0.393656 8.58392 7.92989 0.0346778 1.24539 8.9166 
0.112579 2.54981 9.07499 -0.198574 4.07844 9.06898 -0.350146 5.80582 9.0914 
-0.0751939 7.04896 8.94274 0.648804 7.7471 8.78456 9.23737 0.0996479 0.918584 
9.36503 -0.232514 2.38403 9.50949 -0.485333 4.03101 9.40987 -0.429478 5.67003 
9.2706 -0.170414 7.10948 8.88602 0.443543 8.10266 9.03244 1.31249 0.169156 
8.94833 2.56553 -0.413574 9.06398 4.13017 -0.309206 8.92618 5.68943 -0.168028 
9.08898 6.95167 -0.0676256 8.63104 7.73443 0.0255558 8.57911 8.49694 1.21961 
8.77386 8.65597 2.60722 8.86718 8.79519 4.09181 8.90945 8.8095 5.63096 
8.98293 8.92136 7.02418 8.79654 8.745 8.06998 8.80629 1.43242 8.74288 
8.83714 2.58207 9.09971 9.05697 4.01318 9.08237 8.925 5.60376 8.96913 
8.9011 6.87594 8.68342 8.76713 7.80238 9.0235 1.40085 0.373019 -0.217376 
2.67548 -0.102021 -0.183156 4.34404 -0.0425673 -0.507372 5.86489 -0.171622 -0.647931 
7.01855 0.122568 -0.282745 8.1725 0.310213 -0.195486 1.37588 0.575059 9.23067 
2.59714 0.0342324 9.06493 4.27121 0.000466265 9.15671 5.82112 0.0603419 9.10402 
7.00213 0.362922 9.0549 7.99494 0.545972 9.02376 1.46696 8.46399 -0.183423 
2.54736 9.03032 -0.277369 4.28956 9.12612 -0.558173 5.89734 9.0849 -0.639815 
7.24868 8.99687 -0.530037 8.00879 8.47492 -0.0650715 1.44823 8.37913 8.9725 
2.56443 8.95307 9.10906 4.37726 8.99617 9.16301 5.85888 8.9394 9.2705 
7.16064 8.69436 9.19218 8.10445 8.54958 9.09616 -1.21261 0.235513 4.90051 
-1.62495 6.058 1.69709 -1.51879 6.01377 7.51222 -0.720382 0.588384 7.67006 
-0.681616 0.585853 1.72978 -1.01172 3.12733 8.67927 -0.154733 7.8918 8.49832 
-0.866495 8.06956 6.35712 -1.11539 3.16284 0.250015 -0.949124 8.08001 3.3564 
-0.235909 7.85754 0.563178 -2.01314 5.88761 4.94835 -1.95436 2.91663 3.20103 
-2.04367 2.90569 6.43088 -0.0979559 0.687989 8.59904 -1.09378 0.252464 6.41064 
-1.0542 0.302203 3.34853 -0.109746 0.781015 0.578526 -1.0971 4.7153 8.28956 
-1.00326 6.07883 8.2969 -0.814428 7.03991 8.0077 -1.28629 7.03546 6.96796 
-0.390021 7.84535 7.43234 -1.30553 4.79853 0.607091 -0.932022 6.12637 0.589984 
-1.35457 7.11244 2.57405 -0.969198 7.1121 1.16745 -0.560405 7.85188 1.91583 
-1.02122 7.99937 4.92072 -1.67442 7.14754 4.12821 -1.83204 5.94954 3.2654 
-1.56242 7.10829 5.67882 -1.83519 5.8575 6.37594 -1.90964 4.51632 2.4305 
-1.56355 3.06343 1.65536 -0.989813 1.25853 0.90365 -1.4622 1.00034 2.50462 
-1.73217 0.795093 4.09145 -1.89603 4.55625 7.01312 -1.38949 3.04143 7.44791 
-1.49771 0.823974 5.69467 -1.3506 0.993895 7.0202 -0.770029 1.31567 8.30323 
-2.06526 2.77493 4.89253 -2.00052 4.41801 5.63086 -2.29586 4.4739 4.10733 
9.3482 0.459024 4.88583 9.76082 5.88191 1.79085 9.71098 5.80433 7.45785 
9.27459 0.737929 7.52312 9.14437 0.827234 1.77176 9.27769 3.207 8.35179 
8.98001 7.81973 8.35742 9.51004 7.94825 6.30871 9.27086 3.17701 0.564678 
9.39005 7.96563 3.33213 9.06657 7.7884 0.713389 10.1373 5.70995 4.81471 
9.70897 2.98562 3.29972 9.644 3.03176 6.18136 9.07496 0.971218 8.58148 
9.37348 0.531348 6.38276 9.32214 0.550327 3.27891 8.90323 0.962635 0.588817 
9.65766 4.68618 8.24129 9.52903 6.07463 8.40089 9.40703 6.91528 7.94279 
9.73514 6.9707 6.90012 9.151 7.76907 7.4951 9.55217 4.59069 0.814279 
9.53738 6.09143 0.689646 9.63611 6.98098 2.57769 9.13128 6.88079 1.26813 
9.33544 7.89727 1.9111 9.58199 8.06134 4.82656 9.8006 6.96316 4.14398 
9.77417 5.71909 3.31554 9.66994 6.93579 5.62087 9.99196 5.81824 6.30012 
9.95623 4.42447 2.48883 9.79156 2.98577 1.78162 9.54295 1.51006 1.03977 
9.71875 1.2754 2.54633 9.81636 1.14731 4.0508 9.9323 4.40001 6.92845 
9.95968 2.93434 7.54072 9.72702 1.09155 5.58239 9.74976 1.29754 6.93144 
9.27017 1.5958 8.13146 10.0306 2.76973 4.8742 9.95248 4.37352 5.56511 
10.0001 4.35386 4.08972 3.93803 -1.46185 1.61316 3.91949 -1.48157 7.71932 
8.58586 -0.896383 4.89355 8.48629 -0.215554 7.72894 8.55021 -0.448586 1.62163 
6.5722 -0.616988 8.5725 1.53462 -0.00509993 8.37163 1.23255 -1.04646 6.40795 
6.60522 -0.752202 0.395577 1.13896 -1.31687 3.32167 1.34662 -0.297348 0.502709 
4.01812 -2.06004 5.0156 6.70318 -1.69755 3.25845 6.74315 -1.7383 6.53466 
8.44338 0.294891 8.62822 8.67064 -0.690222 6.4301 8.5836 -0.740518 3.23875 
8.24076 0.351953 0.670417 5.22994 -1.0154 8.32565 3.86317 -0.672572 8.36479 
2.59869 -0.957771 8.1022 2.54872 -1.52099 7.0168 1.24322 -0.744165 7.59311 
5.28259 -1.18026 0.649127 3.78675 -1.08385 0.338313 2.54293 -1.6514 2.48391 
2.54129 -1.00216 1.09798 1.25304 -0.814906 1.83875 1.06861 -1.36558 4.96299 
2.63562 -1.68845 4.05513 3.98868 -1.95651 3.19652 2.57308 -1.78905 5.67896 
3.97841 -1.74581 6.54844 5.41475 -1.8717 2.43241 6.63108 -1.32283 1.54824 
8.02198 -0.627587 0.646203 8.12565 -1.28361 2.32057 8.23393 -1.56803 4.01724 
5.42065 -1.64124 7.0982 6.75508 -1.20145 7.74203 8.222 -1.44595 5.72547 
8.24093 -1.10298 7.21692 7.87131 -0.331753 8.27697 6.73502 -1.78751 4.95432 
5.42331 -2.06027 5.79089 5.41739 -2.10089 4.00168 3.84523 9.82667 1.91969 
3.82556 9.82523 7.50163 8.6477 9.3169 4.84095 8.27513 8.91321 7.55104 
8.57466 9.29198 1.74676 6.59994 9.22027 8.61616 1.2424 9.11542 8.42938 
1.06997 9.32205 6.42041 6.56624 9.39542 0.58888 1.02583 9.53064 3.32294 
1.24212 9.08858 0.692146 3.97786 10.2962 4.80261 6.79239 10.0068 3.25515 
6.69486 9.64224 6.32074 8.23892 8.50335 8.35227 8.50251 9.0675 6.27348 
8.7673 9.47284 3.25795 8.43119 8.76374 0.542036 5.18175 9.51494 8.33711 
3.72643 9.57272 8.476 2.53542 9.31032 8.04113 2.43625 9.94134 6.84432 
1.24621 9.20301 7.35246 5.17176 9.79886 0.711826 3.71241 9.7775 0.529554 
2.40342 9.9107 2.61034 2.48644 9.48655 1.20041 1.19816 9.25445 1.95768 
0.943652 9.5956 4.85818 2.40317 9.76583 4.1818 3.84942 10.2438 3.30806 
2.36074 10.0045 5.52878 3.89684 9.906 6.33971 5.41869 10.0205 2.50346 
6.80997 9.72344 1.78467 7.82518 9.10426 0.949517 7.89959 9.38911 2.59871 
7.97329 9.40606 4.04966 5.41008 10.0932 6.97418 6.74251 9.6874 7.58442 
8.06653 9.6404 5.66764 8.08351 9.64752 6.96906 7.97761 9.22982 8.29959 
6.90711 9.97969 4.8869 5.40976 10.2509 5.59647 5.46882 9.92011 4.10725 
1.64047 3.80719 -1.74383 7.60603 3.7452 -1.71931 5.12092 8.73549 -1.34757 
7.64289 8.38972 -0.707049 1.71282 8.52089 -1.00206 8.50566 6.52168 -0.901376 
8.39775 1.47913 -0.368176 6.52967 1.06288 -1.36873 0.603639 6.4438 -0.898264 
3.40508 0.988664 -1.39827 0.779684 1.29341 -0.577996 4.93632 3.93073 -2.14919 
3.22984 6.69589 -2.10982 6.49704 6.66491 -1.84338 8.52268 8.20922 -0.0945516 
6.55105 8.55879 -1.04753 3.4031 8.74017 -1.14544 0.772359 8.30693 -0.363805 
8.42117 5.09083 -1.25166 8.22454 3.70293 -0.970726 8.15685 2.44113 -1.16377 
6.94538 2.4985 -1.47154 7.57545 1.16322 -1.03128 0.649425 5.13392 -1.34253 
0.540278 3.65552 -1.08792 2.65237 2.39113 -1.61102 1.13083 2.52226 -1.41101 
1.8905 1.29212 -0.974242 5.06517 0.963077 -1.32653 4.1794 2.34223 -1.9914 
3.24399 3.90343 -2.20629 5.68841 2.35081 -1.97443 6.47574 3.83483 -2.0771 
2.47521 5.2735 -1.94999 1.62027 6.5727 -1.70466 1.02973 7.74471 -0.866301 
2.64152 7.93667 -1.23001 4.18525 7.99138 -1.51467 7.05814 5.36952 -1.87355 
7.66868 6.69909 -1.39137 5.85981 8.12337 -1.5063 7.18003 7.97183 -1.22452 
8.22787 7.80433 -0.644785 5.02393 6.8739 -2.09589 5.66673 5.39779 -2.20937 
4.0893 5.42748 -2.24503 1.91792 3.86217 9.87533 7.55235 3.83662 9.87045 
5.04645 8.63459 9.97373 7.52988 8.17027 9.34321 1.85306 8.32829 9.66024 
8.57551 6.52985 9.60826 8.2013 1.50015 9.14269 6.32911 1.25062 9.73327 
0.693043 6.43807 9.41985 3.51896 1.16865 9.66734 0.929229 1.57711 9.24618 
4.90029 3.99227 10.0083 3.25587 6.60604 10.0967 6.42269 6.64943 10.1397 
8.37242 8.05337 9.01909 6.51061 8.45508 9.76122 3.54411 8.5732 9.75023 
0.941543 8.08111 9.08602 8.28093 5.07516 9.70919 8.22714 3.63797 9.41544 
8.03244 2.59859 9.70615 6.88317 2.55874 9.77558 7.49319 1.39479 9.46827 
0.72825 5.10474 9.74057 0.706802 3.66477 9.79522 2.62067 2.47065 9.94342 
1.29553 2.64015 9.61445 2.03068 1.4891 9.32553 5.00766 1.11212 9.50094 
4.14861 2.4692 10.0689 3.37477 3.90685 10.1856 5.6366 2.51342 10.0499 
6.34249 3.93087 10.2447 2.49844 5.20342 9.93152 1.808 6.55304 9.98558 
1.20047 7.67414 9.5266 2.74976 7.79843 9.52661 4.20946 7.81027 9.74976 
7.02638 5.26375 10.0279 7.50103 6.51576 9.71689 5.78354 7.8423 9.78348 
7.06979 7.74117 9.72237 8.10609 7.63258 9.28803 4.99625 6.77206 9.93525 
5.64087 5.34878 10.2442 4.08176 5.42123 10.2798 
POLYGONS 709 2124
OFFSETS vtktypeint64
0 3 6 9 12 15 18 21 24 
27 30 33 36 39 42 45 48 51 
54 57 60 63 66 69 72 75 78 
81 84 87 90 93 96 99 102 105 
108 111 114 117 120 123 126 129 132 
135 138 141 144 147 150 153 156 159 
162 165 168 171 174 177 180 183 186 
189 192 195 198 201 204 207 210 213 
216 219 222 225 228 231 234 237 240 
243 246 249 252 255 258 261 264 267 
270 273 276 279 282 285 288 291 294 
297 300 303 306 309 312 315 318 321 
324 327 330 333 336 339 342 345 348 
351 354 357 360 363 366 369 372 375 
378 381 384 387 390 393 396 399 402 
405 408 411 414 417 420 423 426 429 
432 435 438 441 444 447 450 453 456 
459 462 465 468 471 474 477 480 483 
486 489 492 495 498 501 504 507 510 
513 516 519 522 525 528 531 534 537 
540 543 546 549 552 555 558 561 564 
567 570 573 576 579 582 585 588 591 
594 597 600 603 606 609 612 615 618 
621 624 627 630 633 636 639 642 645 
648 651 654 657 660 663 666 669 672 
675 678 681 684 687 690 693 696 699 
[...]
CELL_DATA 708
SCALARS scalars double
LOOKUP_TABLE default
-5.2703397217 -7.0062775646 -5.5721864576 -6.7475536044 -5.3489826335 -6.3017109079 -6.0688631911 -6.4863940401 -5.4488129066 
-4.9049965779 -3.4068118932 -3.9423534363 -3.3729257906 -0.59755905434 0.54643043978 0.49060083548 -0.70254052396 1.6531806309 
2.3629241494 -0.69239930493 3.9247353433 5.4619263095 5.4642603196 6.119441776 4.4032953514 5.3491913618 5.2452065978 
7.4297193903 6.7910015781 4.3664310488 3.1003899988 2.4443489786 3.2228772144 -0.48050799127 -2.9119538695 2.2742564064 
0.90072620049 -1.4228726648 2.3673417909 4.2323843583 5.6336589607 6.1041386628 6.2489099356 7.8941127636 7.4164172783 
7.8243566261 6.4450485594 6.3376239055 5.1258381062 2.6198354745 1.8711571546 1.3542782866 5.0211996865 7.121953467 
7.421374469 7.5041003916 5.0333131367 7.8709279741 7.6673250928 3.2555719896 1.9862025322 2.6804179591 4.7173384558 
2.7720544838 3.2300265644 3.2128310515 3.0487380897 5.5616889422 6.1139855704 5.6276181014 0.27750960529 -0.43669539044 
-0.94688787941 -0.53664442807 -1.9075847428 -6.2032122627 -4.9672346027 -1.7985051765 -6.4636631388 -5.6324087646 -6.6101233273 
-6.6860567177 -6.8083036197 -1.5221276276 -1.681971051 -1.7122723374 0.39470780872 -1.1939273191 0.20231051236 -1.2459926477 
-2.9807388797 -5.3683777417 -5.5439928338 -4.3416979679 -2.3809797024 -5.4201566263 -4.521047982 -4.3768288022 -2.8535447238 
-1.8706567022 -1.3028275298 -1.0726365949 -5.6802944313 -2.654411073 -1.3540575664 -2.2094226393 0.64783402289 1.6399196916 
0.49345055184 0.79430234338 -0.81555424854 2.4900987887 1.2407588099 1.7813144583 0.81026850556 -1.6966631463 0.34385946715 
-0.46038871792 -2.9600053735 -6.7706281945 -3.250291297 -0.38882415178 -2.1112497068 1.1843331047 -2.1585876964 -1.6060976733 
1.3049018906 -1.3731078726 1.7857928623 -0.64682348977 1.6032953401 -1.9517763246 0.71629205384 -0.18684300424 -1.3296079622 
-1.8703165027 1.8721723696 1.0866209886 1.2573841343 3.6001899573 3.9228728089 4.1243735099 5.4036651549 2.6199232129 
2.2368798263 3.1926112845 2.4349826239 0.25734198292 2.0984690182 1.2662584083 3.9823434321 -0.51889463901 0.55114717583 
-0.069649951423 -1.2227104732 1.1832956902 -0.39042404214 3.5544634165 2.7819919301 -0.60882586559 0.42070038285 5.9787823659 
6.5522007919 5.913693383 6.8557004314 6.2886927893 0.53588420594 5.0143176178 4.5963582508 -0.62051083558 3.0994089871 
4.8181670228 6.1404526758 5.2303269944 3.0981060885 6.1602967663 6.8383055442 1.1055255884 1.3437573869 0.48001235252 
1.9223191119 3.1507903971 0.92757781723 2.4486240668 3.0287835161 1.1776892162 2.7619452234 1.4044141058 0.18903378642 
-1.0901229607 -1.3959985043 0.038540390799 -1.6119050792 -3.963530277 -2.2645297653 0.32975676011 -6.1709595888 -2.4699052502 
-1.7612903038 -5.538981095 -6.3667872217 -0.18217249515 0.39794684784 -1.0044255385 0.8397640997 -0.78312649951 -1.3903649732 
0.95109147404 0.50290005397 -1.7933421231 -2.2030858748 -4.7289927616 -0.67559380584 -3.1556216459 -2.9094045827 -3.2103937297 
2.1711498284 -0.93604100518 -0.39605413982 -2.6576446605 -5.3736683212 -0.49386222312 -0.25966183306 -1.5654229976 -2.1588218788 
0.63813829329 -0.79412069957 -0.35176123757 -1.8850330971 0.27430685193 1.3561728101 1.5198855307 -1.1839531698 -0.85590355332 
-0.81932926364 0.34953592263 -6.3865625954 -0.18845668898 -7.4220560552 -8.4121252272 -7.4649407115 -8.9094573687 -6.3635454325 
-6.7524252263 -9.0149143298 -6.7237575444 -8.6260208367 -0.28413274893 -8.7470782963 -8.484064001 -6.5294951735 -6.2372000484 
-7.1052047558 -4.9204477892 -5.9656786223 -7.4775909569 -6.0348147539 -8.6386743173 -6.047457408 -8.7766628407 -8.4056477642 
-8.8793228169 -8.2093246742 -7.3532065475 -6.6848958649 -8.1639148217 -6.2444253909 -6.3726477643 -6.9641086135 -8.1546082188 
-6.721887434 -6.5564284347 -9.5882995011 -8.1239302008 -7.5571054402 -6.6175373264 -8.966791523 -8.5977281507 -8.7081086343 
-8.4796149935 -8.7292194583 -8.9538519871 -6.5425166688 -6.1805159586 -9.1570229064 -8.732691593 -7.9561600962 -9.4268395319 
-7.3460564651 -5.7994291007 -7.0075461807 -8.9148614075 -8.8542345249 -9.7151193753 -8.8361170285 -8.7746718999 -9.5354752817 
-9.7285776516 -9.7949140887 -8.9841281224 -9.7591657874 -9.7303141812 -9.7684469817 -9.7437251757 -8.9860969901 -9.7406236935 
-9.6839176951 -9.3215788189 -8.7637152378 -9.3920907435 -9.1841614693 -6.7334735826 -8.3689211372 -9.7040531028 -2.159356379 
-7.5936653855 -7.2636957813 -4.9242483879 -6.1359475396 -9.662816622 -8.8386115185 -9.0498308988 -8.8028798138 -9.0906972984 
-7.9750334856 -8.8440984115 -9.3078942777 -7.007673226 -5.2691612651 -5.9044358646 -5.2338880201 -7.2980172403 -5.1294851019 
-0.034918020123 -6.4585424759 -7.4813184067 -8.9610533987 -7.3146374686 -5.0636479073 -9.7741409584 -9.9230292708 -9.7957269642 
-9.5052042217 -9.7552641364 -9.7436252957 -9.5124428891 -9.649781695 -9.9604408721 -9.505511991 -9.8933623689 -9.9966069464 
-9.6145338143 -9.7476187929 -9.7601779403 8.6760434965 8.2759655096 7.458251299 9.0157049853 6.9082171024 4.2247702927 
9.7396709603 7.1410083945 0.62527470823 7.0840471811 1.0497360656 7.966885194 4.9126582444 4.5538684115 7.6198900394 
9.6454605138 8.0257387793 8.0896957504 8.7520583779 7.476803558 8.4930925656 8.693695719 9.8892144363 8.6855484643 
8.2813990016 8.9994318705 8.5692797345 4.2124581784 8.2796331594 4.9075204316 9.3482039015 9.4689903269 8.9877816677 
3.8998295214 9.5391957616 9.4743521435 9.9935584334 9.0604526529 8.8398381825 8.6814156985 9.5283236979 9.0163159898 
9.5844631972 8.9772735404 8.1985748322 7.9958048597 7.0127303954 7.1473095768 8.2782169994 8.6100178345 9.3802013822 
9.7144803456 8.8425179358 8.1674831314 6.8813829468 8.4255182643 8.9657551954 9.710215158 7.8769800485 7.8241740712 
9.5458423186 9.4839100208 9.6046811003 9.0061113252 9.6798231586 9.9617796678 9.9815832752 9.5176324178 9.1602870706 
9.8917928451 9.6476069041 9.9049443089 9.2252036236 9.7601844562 9.8060912049 6.8667900433 4.4539300048 8.8129456513 
8.5254827951 5.5232426918 7.5839783404 9.9584813385 9.835819546 8.9995096346 9.0357235767 8.977583099 9.2185573104 
9.4960124421 9.0055334637 9.1083853628 9.9998435935 6.9946754236 6.2157965131 5.9629414256 7.9244588 1.9965722752 
3.8857853504 8.2647591529 3.4420698283 9.0248169913 9.9925850573 9.3645635068 9.3999455568 9.6265168192 8.8626846955 
9.1551605367 9.2037781833 9.8731691269 9.6544293854 9.7935741544 9.9769613282 9.7385700135 9.5766110486 9.8402449658 
9.6689878981 9.9842474695 9.2114269843 9.7406243222 6.0551789451 8.5426631032 5.283766679 6.8622098221 6.1662685518 
8.9647077927 5.7380578346 6.1433449559 9.0165362306 6.5024387185 8.8003723417 6.7562230646 3.4043454061 9.6702778832 
4.96617201 -2.3228574617 -2.3716382954 -0.63681642785 0.56808702166 0.069141689258 1.199715863 -3.0159309179 -3.6987710568 
-1.5874456878 -2.0413411553 -6.5597172435 -6.3141303599 -2.2895531913 -2.3287597367 -3.1716628661 0.55636581296 -3.6642521243 
0.75158058498 -2.3644230276 1.8111372953 1.6805094194 -1.1142550866 2.6709735147 -1.4130070917 -0.73438350805 -1.9410006281 
-3.0440203739 -4.7662804159 -4.1350756085 -7.0558962438 -5.1204119698 -5.3665588485 -5.6204956095 -5.6268615918 -5.9847818337 
-3.120355973 -0.20520384912 -1.2317417605 -0.85005001181 -2.5714874911 -5.0813290182 -6.0987189637 -2.706509695 -6.4135614256 
-5.71990617 -2.6741513132 -1.1545443624 -2.7248435766 -1.7595457926 -0.90569159744 -3.2012788799 -2.6533897907 -1.0439482039 
-4.2407190123 -4.1683283161 -4.2764477919 0.4830225489 2.3180508012 0.21392682096 -0.27209949504 7.734069334 6.3138595912 
5.1373335003 0.9596437991 5.4423418742 6.1878191409 2.7357167289 0.25781127766 4.7907224595 2.2248665465 4.7829173165 
0.57218469477 1.7309019768 1.7307261237 1.2498365749 3.1431457114 6.6607272 4.9168786321 5.0288148224 2.8277620547 
6.7761917674 4.088113168 1.4465925441 0.67049359732 2.751180293 2.5009757716 2.9800346349 2.354577966 3.0370943318 
4.3935309652 4.4313571196 1.2432274828 0.1157017568 -0.62222919357 0.39551634317 -0.1594735953 -0.44464147621 0.23446635241 
0.78549858167 -0.51711653902 1.042439726 1.5657902985 0.87081998522 1.9740939131 2.7984763382 3.7326168054 8.1155903773 
3.2346654539 9.1503712871 3.6991516325 3.5716342611 8.3454316941 3.6769050003 8.2127321016 6.4934083476 4.1989180263 
8.2040934571 -2.5987379453 -1.9056224332 -1.9559295925 0.98975022468 -1.1801674017 -0.48926730919 1.0844674967 -1.0699192947 
-3.5765040069 -1.3087574706 -2.2200823419 -4.6048457352 -4.1224828947 -2.3859336945 -2.0322855517 -2.6740119572 1.1731975253 
-3.0425374093 1.0939587789 -5.2044957474 1.9561596493 1.1205421532 0.38896409976 2.0380529735 -0.58483441622 0.39056689999 
-0.7887256277 -3.8253943554 -2.9742657381 -3.923534093 -4.3100424987 -0.49138698458 -4.0384808117 -2.4105830238 -1.5050253477 
-2.7079657724 -1.7512048682 -1.9230250283 -3.6067824229 -1.3060017856 -0.96085427326 -4.2620084095 -5.1557429221 -2.5883984706 
-3.4908660453 -3.2234510411 -0.56405979703 -0.17948359467 -1.2407358547 -1.2346415307 -0.53827640541 -2.1289746994 -2.3816785654 
0.33966952538 -3.09129409 -3.3423108909 -3.7357701759 0.048865551925 1.9620166198 -0.77412981272 -0.91725738181 6.820464573 
5.8634985248 3.7685807223 1.4843538564 2.3328682693 4.2184109946 -1.3036576124 -2.1674341915 4.003014793 1.1222719093 
3.6507987733 -0.17127105253 0.87989215026 0.48736498227 1.3739388629 3.1968820736 4.1861815793 4.4513934008 -0.18312928635 
4.5697373573 1.7165171824 3.342333114 6.0417869206 4.0540431278 3.1341811458 1.2812318384 1.3494500953 -2.4726787945 
2.248711993 2.2562592888 1.5790495701 -0.12878740963 0.03646667534 -0.81056370097 0.78810125608 0.010921053174 -1.178723439 
0.49778675127 0.42181052934 -1.7880039704 2.0083669916 1.5507475463 2.2614250041 
