# vtk DataFile Version 5.1
vtk output
ASCII
DATASET POLYDATA
POINTS 356 float
0.321306 0.280889 0.0535033 0.526697 0.693214 8.60789 0.678368 8.25083 0.252306 
0.75304 8.14365 8.42646 8.68822 0.632488 0.184568 8.29572 0.955839 8.55187 
8.45211 8.11087 0.417536 8.40297 8.10543 8.4647 -0.100733 0.141067 1.2306 
-0.729674 -0.411954 2.4881 -0.956212 -0.452809 4.04702 -0.83563 -0.362118 5.58704 
-0.556798 -0.228715 6.90537 -0.193947 0.0813154 7.97358 -0.0575048 1.21836 0.0586413 
-0.225921 2.42204 -0.711289 -0.511898 4.02838 -0.756153 -0.377597 5.66808 -0.483785 
-0.322118 6.93446 -0.155737 0.46287 7.71544 -0.178857 0.385641 8.51213 1.24453 
-0.1197 8.76365 2.60236 -0.226025 8.80098 4.14209 -0.144088 8.7349 5.47521 
-0.124526 8.70555 6.78005 0.353533 8.48829 7.8342 0.0359753 1.25226 8.85784 
0.112552 2.48919 9.02954 -0.229739 4.05528 9.06803 -0.245798 5.67037 8.96187 
-0.0848347 6.87143 8.82424 0.694782 7.57474 8.62672 9.11154 0.0963964 0.963172 
9.28835 -0.23453 2.32048 9.39319 -0.493638 3.95564 9.28367 -0.428431 5.55331 
9.14615 -0.0835294 7.04617 8.68721 0.533146 7.94364 8.87044 1.24806 0.0264569 
8.65936 2.47473 -0.404709 8.83457 4.07393 -0.335983 8.84347 5.56331 -0.290558 
8.87157 6.7712 0.119399 8.57411 7.63573 0.0112117 8.47624 8.40374 1.14422 
8.7821 8.62333 2.51724 8.77318 8.73155 4.0136 8.72993 8.65465 5.4754 
8.66471 8.63483 6.87582 8.44763 8.28486 7.84873 8.74227 1.49389 8.59176 
8.71759 2.59975 8.9266 8.98618 4.03029 8.95706 8.84716 5.56728 8.84578 
8.81668 6.67608 8.64143 8.6527 7.61758 8.81851 1.37685 0.42172 -0.300542 
2.57429 -0.380773 -0.436142 4.19403 -0.147577 -0.678688 5.69976 -0.204178 -0.771348 
6.89549 0.103668 -0.554879 8.0289 0.261531 -0.238042 1.4239 0.499824 8.94939 
2.72578 0.0443753 8.81935 4.32074 0.0286004 8.98131 5.83269 -0.0258908 8.96466 
6.95365 0.328285 9.02248 7.79712 0.708474 8.64833 1.3775 8.41453 -0.315037 
2.49925 8.98051 -0.369737 4.33151 9.01824 -0.603436 5.75107 8.86064 -0.685426 
7.05284 8.60856 -0.499207 7.82712 8.41335 -0.102255 1.42956 8.27585 8.98355 
2.54136 8.71126 8.89784 4.28908 8.83699 9.18394 5.81923 8.80036 9.39196 
7.02862 8.54512 9.2776 7.81933 8.29034 8.89434 -1.29846 0.149945 4.82545 
-1.66904 5.95008 1.65849 -1.5029 5.90604 7.4762 -0.833007 0.502465 7.57431 
-0.952983 0.555949 1.72891 -0.96859 3.16087 8.48661 -0.0891444 7.67241 8.38101 
-0.918781 7.85497 6.21688 -1.13202 3.20648 0.387456 -0.970594 7.86418 3.35347 
-0.293832 7.76047 0.501533 -2.24612 5.74482 4.85763 -2.09216 2.92878 3.26664 
-2.07214 2.92232 6.18563 0.0126411 0.907826 8.25674 -1.19262 0.215701 6.22444 
-1.28847 0.215056 3.23784 -0.419305 0.516252 0.334619 -1.20819 4.69993 8.17503 
-0.885405 5.99219 8.2124 -0.84859 6.93786 7.75775 -1.56754 6.96813 6.8516 
-0.562044 7.75184 7.32813 -1.48289 4.70695 0.50924 -1.15093 6.02459 0.440087 
-1.6549 6.95305 2.50598 -1.00094 6.92324 1.24341 -0.829065 7.98729 1.83192 
-1.24744 7.98914 4.82816 -1.87218 7.0046 4.08011 -1.92865 5.81219 3.25197 
-1.71795 6.94402 5.51643 -2.00891 5.85425 6.26924 -2.17896 4.51967 2.50727 
-1.91828 3.05388 1.5992 -0.928363 1.2821 0.782189 -1.67739 0.952553 2.52929 
-1.8231 0.804483 4.0897 -2.01866 4.47671 6.89533 -1.51916 3.04881 7.39966 
-1.77496 0.707299 5.5844 -1.45531 0.911166 6.91008 -0.862084 1.30598 8.18367 
-2.38742 2.79243 4.84226 -2.27962 4.41328 5.56475 -2.41559 4.44648 4.08526 
9.49613 0.396819 4.74047 9.55262 5.78586 1.76987 9.54566 5.79847 7.25969 
9.30865 0.796541 7.42927 8.89105 0.854483 1.72323 9.19329 3.21914 8.24888 
8.80188 7.54854 8.21125 9.26156 7.80674 6.11494 9.4127 3.09853 0.430647 
9.13123 7.80082 3.3772 8.93643 7.64007 0.685444 10.0159 5.56387 4.84009 
9.75277 2.96269 3.12765 9.63613 2.93086 6.12 8.87461 1.03553 8.439 
9.52805 0.43502 6.30221 9.22247 0.552519 3.22743 8.88406 0.983095 0.615857 
9.42074 4.6685 8.14147 9.64122 5.96629 8.26448 9.2259 6.85538 7.82597 
9.69173 6.91433 6.76867 9.16338 7.746 7.35138 9.49983 4.62765 0.864591 
9.41775 5.94274 0.575071 9.59392 6.92105 2.60017 9.17045 6.78291 1.24095 
8.99335 7.67209 1.84155 9.48596 7.88486 4.79235 9.6235 6.764 4.06648 
9.80228 5.70088 3.25697 9.55575 6.76438 5.47391 9.65436 5.78932 6.23193 
9.93813 4.36111 2.49226 9.52741 3.11007 1.73464 9.33675 1.51115 0.896635 
9.68409 1.22441 2.48199 9.69629 1.15342 4.01552 9.92293 4.29285 6.8282 
9.73173 2.98736 7.38833 9.79107 1.02127 5.50077 9.56867 1.23361 6.85111 
9.13663 1.58996 7.8902 9.8304 2.69841 4.79765 9.91488 4.32294 5.48457 
9.85873 4.28041 3.99055 3.82893 -1.7591 1.49605 3.87099 -1.51846 7.4285 
8.49815 -0.898985 4.76665 8.51019 -0.371917 7.60217 8.46829 -0.442657 1.56831 
6.56516 -0.688214 8.31016 1.34617 -0.173216 8.32645 1.19069 -1.23031 6.21355 
6.58467 -0.804065 0.269103 1.147 -1.29475 3.30344 1.31465 -0.489677 0.388264 
3.95536 -2.25193 4.91947 6.58484 -1.874 3.21346 6.61335 -1.66874 6.28713 
8.38281 0.272814 8.6587 8.51867 -0.731958 6.41835 8.51516 -0.796942 3.185 
8.22341 0.323929 0.491644 5.16509 -0.999999 8.19366 3.71627 -1.01057 8.44973 
2.54783 -0.976228 7.97636 2.45573 -1.57949 6.93238 1.17444 -0.854078 7.51111 
5.23436 -1.31653 0.573998 3.79128 -1.11564 0.246695 2.47995 -1.81131 2.41416 
2.64377 -1.05358 1.11119 1.10041 -1.17577 1.64699 0.982107 -1.57892 4.88382 
2.54319 -2.10977 4.04869 3.9495 -1.94292 3.25153 2.52721 -1.92686 5.59141 
3.89464 -2.05781 6.34814 5.28625 -2.02304 2.38105 6.52524 -1.46244 1.50317 
7.99161 -0.703459 0.608896 8.05836 -1.2459 2.26594 8.12421 -1.54426 3.95111 
5.30978 -1.91408 6.91536 6.49372 -1.37701 7.45879 8.1223 -1.52216 5.60358 
8.0016 -1.14453 7.14019 7.75289 -0.174029 8.14406 6.632 -2.04218 4.95517 
5.34796 -2.21394 5.66975 5.34546 -2.37362 3.99826 3.76122 9.77652 1.85292 
3.72175 9.77891 7.30202 8.60486 9.44494 4.77463 8.33901 9.02875 7.57101 
8.1943 8.87446 1.87518 6.53335 9.01132 8.41912 1.27204 8.8646 8.31382 
1.04991 9.28607 6.23084 6.47287 9.42834 0.304607 1.04679 9.41123 3.29803 
1.24246 9.08216 0.587204 3.84057 10.2452 4.78814 6.65933 9.81676 3.27525 
6.63836 9.66766 6.18108 8.22667 8.55706 8.51419 8.57475 9.29679 6.27369 
8.36003 9.18465 3.17152 8.38168 8.85605 0.410671 5.10325 9.41785 8.26953 
3.67247 9.50818 8.43242 2.49854 9.2831 7.98153 2.31027 9.88087 6.82824 
1.13981 9.06187 7.25018 5.06769 9.45087 0.811277 3.63303 9.71017 0.446785 
2.30404 10.0062 2.59206 2.4541 9.38825 1.12739 1.131 9.27552 1.93407 
0.864066 9.58183 4.81341 2.33442 9.87593 4.16105 3.83629 10.0554 3.20537 
2.31127 9.8375 5.38081 3.80423 9.94086 6.26372 5.37963 10.1486 2.43877 
6.5894 9.51421 1.70214 7.5928 8.9697 0.96803 7.82533 9.53714 2.46597 
7.77993 9.5023 4.05461 5.35428 9.85282 6.94931 6.54997 9.62928 7.47314 
7.82283 9.5164 5.50699 7.74841 9.2652 6.88288 7.68758 8.94626 8.06266 
6.68981 10.1345 4.83651 5.25471 10.0792 5.48555 5.29947 10.0168 4.08533 
1.627 3.74523 -2.03604 7.40404 3.73041 -1.66375 5.03728 8.57345 -1.30264 
7.61375 8.19937 -0.719145 1.76807 8.36718 -1.03119 8.37502 6.36173 -1.02182 
8.22818 1.39223 -0.650031 6.27996 1.03187 -1.37958 0.54711 6.32248 -1.03452 
3.48427 1.10837 -1.55442 0.749178 1.31618 -0.783968 4.89084 3.81378 -2.30419 
3.2014 6.5205 -2.17418 6.38902 6.59086 -2.05239 8.43812 8.09086 -0.195704 
6.46547 8.42445 -1.16812 3.40601 8.62262 -1.20755 0.700844 8.20046 -0.462805 
8.04855 4.96818 -1.34393 8.38815 3.53861 -1.24942 7.81832 2.51889 -1.28983 
6.83618 2.3874 -1.79287 7.32211 1.07809 -1.05418 0.675861 5.07799 -1.64891 
0.612573 3.63413 -1.27692 2.59427 2.39786 -1.75331 1.16111 2.48908 -1.55433 
1.81208 1.07453 -1.34343 4.99258 0.939454 -1.5349 4.13907 2.29187 -2.21287 
3.26936 3.78396 -2.37635 5.62898 2.28554 -2.07064 6.27908 3.79807 -2.24777 
2.5483 5.1171 -2.0386 1.63552 6.43596 -1.77573 1.09778 7.60517 -0.960548 
2.65208 7.78509 -1.37254 4.21464 7.98029 -1.68844 6.84708 5.20818 -2.06316 
7.44665 6.50811 -1.46694 5.71258 7.92964 -1.56452 7.05128 7.78641 -1.31891 
8.08226 7.59498 -0.580748 4.95227 6.65086 -2.17713 5.60075 5.29845 -2.28297 
4.08002 5.31478 -2.47458 1.84379 3.80357 9.98769 7.38189 3.72788 9.88589 
5.08062 8.29476 9.50911 7.53019 7.94109 9.22625 1.91372 8.10691 9.49243 
8.3093 6.31773 9.448 8.13355 1.57556 8.89877 6.22611 1.30099 9.38375 
0.800816 6.27689 9.15126 3.40673 1.12043 9.68271 0.982891 1.52536 9.0447 
4.85831 3.87609 10.1765 3.2444 6.46341 10.1744 6.28139 6.48883 9.84455 
8.21018 7.89575 8.83568 6.2428 8.0996 9.37168 3.44174 8.40569 9.63814 
0.83671 7.98195 9.05634 8.20244 4.89011 9.53649 8.18879 3.58757 9.28042 
7.77711 2.53116 9.51598 6.77321 2.51561 9.74729 7.36944 1.35873 9.38081 
0.705395 5.02935 9.75253 0.768191 3.5932 9.49465 2.73523 2.42572 9.7817 
1.22215 2.4621 9.74324 2.06566 1.34002 9.39995 4.95728 1.00089 9.56878 
4.11029 2.47445 9.94801 3.20913 3.8033 10.3024 5.55367 2.39421 10.0895 
6.17444 3.77275 10.0029 2.58747 5.17308 9.88951 1.81717 6.42676 9.87589 
1.16744 7.47648 9.31502 2.75454 7.59755 9.55693 4.15136 7.74007 9.87071 
6.88543 5.19372 9.80968 7.31857 6.40105 9.64866 5.75242 7.7252 9.8636 
6.94072 7.6706 9.66003 8.02243 7.44524 9.26574 4.90785 6.71559 10.0113 
5.63943 5.32749 10.256 4.01188 5.18437 10.1983 
POLYGONS 709 2124
OFFSETS vtktypeint64
0 3 6 9 12 15 18 21 24 
27 30 33 36 39 42 45 48 51 
54 57 60 63 66 69 72 75 78 
81 84 87 90 93 96 99 102 105 
108 111 114 117 120 123 126 129 132 
135 138 141 144 147 150 153 156 159 
162 165 168 171 174 177 180 183 186 
189 192 195 198 201 204 207 210 213 
216 219 222 225 228 231 234 237 240 
243 246 249 252 255 258 261 264 267 
270 273 276 279 282 285 288 291 294 
297 300 303 306 309 312 315 318 321 
324 327 330 333 336 339 342 345 348 
351 354 357 360 363 366 369 372 375 
378 381 384 387 390 393 396 399 402 
405 408 411 414 417 420 423 426 429 
432 435 438 441 444 447 450 453 456 
459 462 465 468 471 474 477 480 483 
486 489 492 495 498 501 504 507 510 
513 516 519 522 525 528 531 534 537 
540 543 546 549 552 555 558 561 564 
567 570 573 576 579 582 585 588 591 
594 597 600 603 606 609 612 615 618 
621 624 627 630 633 636 639 642 645 
648 651 654 657 660 663 666 669 672 
675 678 681 684 687 690 693 696 699 
[...]
CELL_DATA 708
SCALARS scalars double
LOOKUP_TABLE default
-4.644508736 -1.2365006439 -5.8898642353 -6.752665877 -6.5986000474 -5.836405259 -6.2453693327 -5.6019320909 -5.6598771168 
-5.0726411307 -5.7373171571 -5.7324829227 -8.9478031574 -0.73179014729 1.7300089856 1.5923041753 -1.3219565591 0.5071959623 
1.7338335562 0.42875639105 3.0653285479 4.8174926492 6.8894368049 5.1878630057 3.4411633659 5.3563595457 5.6960586281 
6.4993871332 6.196783361 4.7257298127 3.1211774852 3.0928352161 3.0257584846 -1.6060394994 -1.9686707014 2.0837761801 
-1.4730695169 1.6916663773 1.4868854461 3.7735779237 6.1434626966 3.5772560754 3.7243330384 6.5515211529 7.9284960687 
7.9515814655 7.9487279197 6.8144259201 3.5214443134 4.3466978079 4.7345890332 2.0559017336 6.5918008534 5.3209718928 
7.4282098295 6.7293012657 6.6673170767 7.0332036211 8.0483588864 1.3849017444 1.7360769299 1.4357282056 6.237253895 
3.3880262713 1.6519479043 3.207544785 3.4702228416 5.2698504536 6.2674152812 4.6920577498 1.487617448 -1.4726897084 
-1.069151788 0.33912688549 -4.9613186972 -1.5383399617 -6.2884651679 -1.6572918645 0.26015485488 -5.622203212 -5.6767403579 
-5.5698922493 -5.1919389948 -1.6298712173 -1.9878976976 -2.8566579242 0.94474477306 -1.6245176222 -0.4628361883 -0.98941914173 
-1.9700735648 -6.4957789251 -5.8447672751 -5.6462545879 -1.6654232129 -2.7176456012 -3.9657233455 -6.9727382612 -7.8912014532 
-1.254074535 -1.2347064316 -1.2976022234 -6.3660726679 -1.9321877733 -1.9797182943 -2.7757151592 -0.55201243267 1.7648088541 
1.0786667386 0.92099725871 -1.2642832645 2.3149109517 2.6179695204 2.608789634 0.74318846144 -1.0444512311 -0.38705076226 
0.25176339366 -2.5358168623 -7.2540205209 -2.5137895437 -4.0680079209 -3.3191597544 -1.7911831267 -3.947253486 -1.4902971013 
1.3197390082 -1.1748974845 3.2044841917 -1.3651706196 0.53248152992 -1.2384448459 -1.609613714 -1.7938618868 -1.7371180008 
-1.1357776432 1.6811801331 1.1445479656 0.58893732785 2.8749473639 4.867326553 2.7475405095 5.3191595091 5.2454421958 
5.9776666147 5.0529967651 5.5412142508 1.2638637717 3.5796668837 2.497863236 5.5283137508 -0.557259676 -2.045868424 
0.3842864613 0.98133065838 0.096711935731 -0.64407203963 1.9262535205 5.4315054463 2.3014087574 3.8274610691 3.7164312405 
5.3991098838 6.1099527181 3.8088020784 2.890666456 0.95813529521 3.2769712713 4.4140262594 1.8492057411 5.349952184 
2.3656075668 6.1123672062 5.5558835998 4.4468644558 4.8688479266 6.732465767 0.8158811277 2.4486369613 1.6729493774 
3.4650151289 2.544291166 -0.83271431133 0.17772532187 3.3663789466 1.6659149917 2.7525350895 0.9106578861 1.4056365681 
-0.31957409827 -2.0819466067 -1.4274158565 -0.12998727834 -3.1864433769 -1.267458131 -0.35914410363 -5.4362180188 -2.8069954474 
-1.8320459752 -5.9113868197 -7.48911624 0.19547477982 -0.73002115472 -0.039399244887 1.4395434199 -1.7242779081 -0.90315244156 
0.14668068085 0.28839752341 -3.2728650613 -2.6850232377 -1.7772016888 -1.3634727798 -3.8893245405 -0.28408878292 -2.51191043 
0.83756597073 -1.502828792 -0.70495876194 -2.1504425758 -3.3407331374 0.35152725955 -0.58386065802 -0.51957705793 -2.0088184293 
2.145345003 0.47807069543 1.7588975145 -1.1038873565 -0.31032918941 1.8541012625 0.68754266003 -0.98893614473 -0.45166732161 
-1.2068632947 -0.36503158927 -3.9066390341 1.8099086296 -7.2854711001 -7.8356260736 -7.1283450256 -8.8434298736 -3.6766886584 
-7.0827809719 -8.7698593557 -6.8222477579 -8.4731700256 -1.9592644103 -8.50898152 -7.8572301928 -4.4255802811 -8.8670581723 
-5.1893623776 -6.053452632 -6.527233271 -4.0837065452 -6.1486766941 -8.5188320308 -7.0611900526 -8.864905668 -8.3027456042 
-8.7944078926 -8.1774070915 -5.1986687082 -7.11435752 -6.6085653713 -8.8982612415 -6.0745303944 -5.6851205785 -5.9927013707 
-6.9553505484 -6.9575078047 -8.8908570387 -7.8738755154 -7.5712345933 -7.0314836024 -8.0317038638 -9.1813663074 -8.6617244106 
-8.5321448973 -9.1503640184 -6.7245045431 -5.8415516485 -8.0160581315 -6.5147278095 -9.124092138 -9.0585059197 -8.3366057129 
-8.7329872961 -6.8892672763 -5.2409309559 -8.4317710915 -8.8247177488 -8.8622488077 -8.8219047908 -8.4347906665 -9.9430404833 
-9.8317157372 -9.8353020379 -9.035156502 -9.7847495413 -8.8963332584 -9.4711759402 -9.7895739364 -8.976311105 -8.889421958 
-9.5749268684 -9.2950447609 -8.6389472779 -9.3727168065 -9.1812233228 -6.3787218644 -7.9929358715 -9.4131253557 -2.3914175781 
-7.72246571 -7.3462049612 -5.6194544859 -5.9060066628 -9.3948534956 -8.7245210781 -9.0841304558 -8.1421952391 -9.1876989928 
-7.7662444834 -8.0451334794 -9.4670739872 -6.7737963633 -6.5792762794 -6.0167774822 -6.2381316466 -8.0060757913 -6.3553460273 
1.6691542147 -4.5139156252 -7.3036701208 -9.4581003713 -6.6406289664 -5.0873879959 -9.4019082138 -9.6207257919 -9.4583979555 
-9.2929968684 -8.9206014002 -9.9016541559 -9.7217913753 -9.4545110514 -9.6310771936 -9.8806102446 -9.6113444054 -9.951752153 
-9.4314204302 -9.2599710356 -9.7872042091 3.632836458 3.4262136418 6.3566931714 1.7749990404 5.8992640637 1.8984690366 
2.447342996 7.8185877326 6.3055691007 6.706667065 7.5669098787 7.9487175015 0.54863083639 0.9321291408 7.25989796 
9.6785545299 7.8695101888 9.047931484 9.0715028157 6.6325814377 8.6191063129 8.7747625072 9.4162190932 8.3446234343 
7.9267980191 9.1082562766 8.6155225153 5.019516948 8.5832567955 7.0514813396 9.409093451 8.3672550079 7.8847429886 
5.2587317678 7.6002053755 7.5338442129 9.7908745196 8.9894718672 9.3955627065 8.7671832482 9.1796379888 8.7098581035 
9.7208976498 8.6246006912 8.8620878202 7.6016513171 6.1076007223 6.1901949273 7.9555811895 8.9610245147 9.5647941199 
9.614317446 8.8620329043 8.0241377793 7.1220876826 8.1506245325 9.0105399751 9.1808120246 8.4605649258 7.8762395278 
9.775984184 9.7475273547 9.9432871318 9.0898133623 9.639580101 9.8764075709 9.9822937163 9.6837001509 9.3907357657 
9.5756068382 9.8248041278 9.2163533056 9.981298746 9.1236656451 8.8381288198 8.4760337271 7.7949318765 9.6738659437 
8.4414056659 7.0871646791 6.8185308636 8.5421366267 6.7650414193 9.7617424396 9.016106148 9.0175578409 9.4801069204 
9.8522255038 8.2251249998 9.4699364952 9.5549711667 6.6651499396 8.0823700059 9.7803700019 9.0389455522 7.644297353 
9.6143421621 1.5644305912 7.882458272 8.1648402938 9.4859617958 8.814383325 9.9673734704 8.979672578 9.0237618266 
8.7185896787 9.6623518617 9.8812749517 9.7919405454 9.8806077094 9.766861268 9.8812192009 9.6942924868 9.9667168659 
9.899333249 9.7950474012 9.3727289017 9.9715900179 4.887885327 8.8616335673 6.0869152003 8.6699675117 6.3804726807 
8.7173096419 8.0282312796 7.0636545653 8.8405770506 6.4685764383 8.4665287248 6.2948717337 4.1236177948 9.553150868 
1.7870131808 0.32668350253 1.6672845915 1.2639040903 -0.55884512464 -0.82999876125 0.13774749594 -1.1211087527 -2.9853029559 
-3.86131755 -2.969357606 -5.3086883171 -5.3500116393 -3.603085776 -3.7366779805 -1.2342717741 -1.6237104488 -1.2948050821 
-3.4881893206 -3.6314795157 2.2354448155 2.8976899702 -1.8003783935 2.8924553735 1.7362476929 -2.0104423375 -3.0502467223 
-2.2993543945 -3.4741539012 -2.1196721054 -5.8553606517 -6.505972705 -2.7081204209 -5.6776337563 -6.3137294478 -5.6118893561 
-3.6261920502 -0.88576895022 -0.40849622078 -1.0453770705 -4.8857775004 -4.8899535901 -5.2665073122 -3.3799183814 -5.9212786099 
-5.8413009293 -3.2685683346 -0.82372394425 -2.704499138 -3.7124782168 -1.3264256886 -1.0648162464 -2.125243775 -1.0585878717 
-4.2201586664 -4.6834113207 -4.029827909 1.3558811614 3.2109990654 0.21667935021 0.53260197047 5.7800731941 5.7709867679 
4.4755029318 0.10848082211 5.4134945255 7.1809270296 3.8229163326 1.4879279323 4.4159422493 2.8513150986 4.6063029409 
-0.41578193773 1.6815662876 1.0205086214 1.3990267174 4.2566341163 6.8638931881 6.8677973138 4.0067219468 3.6102614334 
5.3419339803 2.8675607192 2.7324829477 -0.58929907619 3.9343955582 2.4692322125 2.7123430082 4.5372376783 3.831763371 
3.3200899671 3.8678883824 0.66608810611 -0.67732422029 -0.05108968328 0.57158965252 0.36610892367 -0.88155784762 1.3525559079 
0.88729264089 -0.45316466566 2.2887031927 1.2093193038 1.3696857467 4.4732361093 5.1256563093 4.0797437899 0.32160605675 
4.0506893266 3.8133257693 3.4508692912 5.0267082107 8.3903205603 5.2815055878 8.0394442004 4.0649321339 1.5945860318 
8.7391739881 -0.49745888512 -1.6378377305 -1.7658555497 1.2703251696 -0.13338502159 -0.98119586078 1.1367511213 -2.201861646 
-2.8646198689 -2.9383817465 -1.8791416333 -3.3535071505 -4.6070765837 -3.8403027353 -4.2387417452 -2.5627656069 -0.52221793696 
-3.1806266228 -0.18500341219 -3.7544504525 1.4388690835 -0.18332829525 -1.7952858842 4.2344306441 0.45298326986 -1.7662117394 
-1.6615521654 -1.9189852669 -5.0249128509 -3.1410120295 -5.8918534147 -2.3044635131 -4.4310069569 -2.5048069334 -4.3436696301 
-5.010178075 -4.3481939722 0.30091247723 -0.32559945832 -1.1717612977 -1.2625401799 -3.5173295963 -3.1436239991 -1.3347573304 
-5.2741679181 -5.1279143817 -2.7944511037 -2.0357877482 -3.2066169862 -3.9025763562 0.032779798893 -1.5735898974 -0.63800796907 
-1.063450502 -4.2506409875 -2.1927238705 -3.0641656376 1.1487297014 3.912677881 -1.1272632412 -0.32242380241 7.1325693588 
4.6732922592 3.8245228003 -2.6533675082 3.6087360388 5.293348665 0.9606808941 -1.092138844 4.0165962246 0.68824477395 
3.818516708 1.2793954786 0.62384815075 0.45525937554 0.53101121429 0.58072707275 3.0773793758 3.152517241 7.0850829395 
2.8704907839 4.4300153012 4.4842728182 6.6382041444 5.5285077624 2.080582969 0.47544891976 0.9848848235 5.3578625161 
0.38955691309 1.8484275094 1.4007198149 1.3688207116 0.85161467347 -1.1891660992 -0.38667042776 -1.0777084855 0.31734523912 
1.8837805122 1.9391557155 -0.37402265259 0.70595797465 2.513394446 1.4877646678 
