# vtk DataFile Version 5.1
vtk output
ASCII
DATASET POLYDATA
POINTS 356 float
0.342267 0.342458 0.0690537 0.509736 0.593587 8.63434 0.529968 8.33596 0.188829 
0.798877 8.13547 8.45453 8.6103 0.573915 0.055059 8.31075 0.916176 8.42243 
8.49432 8.18657 0.225227 8.40128 8.0216 8.50354 -0.194458 0.0522761 1.16894 
-0.604571 -0.273234 2.51225 -0.7956 -0.39028 4.06982 -0.78891 -0.385641 5.54723 
-0.679998 -0.22276 6.97174 -0.162536 0.116394 7.83243 -0.0270596 1.30548 0.0643617 
-0.370931 2.41259 -0.795146 -0.503968 3.95264 -0.769705 -0.392074 5.62447 -0.572523 
-0.396211 6.88053 -0.12138 0.511138 7.68036 -0.221358 0.288306 8.51568 1.22656 
-0.217416 8.76614 2.57595 -0.261743 8.74088 4.14285 -0.202845 8.72506 5.44576 
-0.104587 8.72917 6.77384 0.397722 8.42014 7.81828 -0.101851 1.21383 8.85945 
0.146357 2.45563 9.10654 -0.373339 4.05869 9.0574 -0.173746 5.6115 8.84005 
-0.0199098 6.71512 8.57963 0.441835 7.61538 8.91429 9.01708 0.0877751 0.836497 
9.18958 -0.227814 2.32571 9.32131 -0.477657 3.96151 9.37851 -0.448563 5.52957 
9.20452 -0.159892 7.03726 8.70306 0.463287 7.90557 8.76807 1.40696 0.02263 
8.55246 2.55528 -0.45875 8.82899 4.01326 -0.348993 8.83707 5.47943 -0.348005 
8.8741 6.87754 0.0294434 8.51092 7.5932 -0.0132903 8.46505 8.29163 1.18622 
8.67717 8.54095 2.51104 8.68539 8.73515 4.02437 8.9192 8.76944 5.4826 
8.66829 8.74395 6.87509 8.59877 8.48806 7.87761 8.68002 1.48755 8.48374 
8.73612 2.58967 8.94983 8.97114 4.02283 8.94883 8.84179 5.53504 8.88743 
8.8723 6.66763 8.64674 8.47618 7.48951 8.69944 1.32484 0.378844 -0.350092 
2.57491 -0.312328 -0.379925 4.19322 -0.189733 -0.766395 5.68935 -0.135681 -0.805543 
6.88277 0.0084493 -0.620671 7.8009 0.314906 -0.273197 1.4021 0.468814 8.98018 
2.65414 -0.0174332 8.92653 4.28017 -0.0183734 9.00225 5.81191 -0.0971948 9.00667 
6.86259 0.400031 8.90166 7.85719 0.628783 8.83018 1.41731 8.31234 -0.313092 
2.48005 8.92843 -0.390187 4.31126 9.04795 -0.66929 5.76917 8.9139 -0.783509 
6.86949 8.53152 -0.518263 7.8316 8.37155 -0.0602827 1.38176 8.19452 8.9243 
2.5554 8.66395 8.91307 4.25888 8.7451 9.03254 5.73248 8.50554 8.99545 
6.89593 8.27043 8.95812 7.81225 8.20354 8.74283 -1.59744 -0.0531627 4.83213 
-1.77737 5.93225 1.62123 -1.55968 5.89689 7.40084 -0.821425 0.579487 7.44198 
-1.23922 0.358498 1.62456 -0.804772 3.1293 8.34501 -0.0639934 7.71153 8.29506 
-0.962683 7.87369 6.20851 -1.22684 3.1832 0.397132 -1.0683 7.882 3.30567 
-0.341107 7.72463 0.422019 -2.38958 5.68652 4.84384 -2.29995 2.94346 3.26681 
-2.18528 2.92098 6.19781 0.0321854 0.807211 8.29527 -1.19218 0.334275 6.23404 
-1.59068 -0.064998 3.18927 -0.436222 0.53013 0.26332 -1.3127 4.70218 8.0997 
-0.985616 5.9779 8.29445 -0.904001 6.94111 7.82927 -1.65757 6.92269 6.77118 
-0.678603 7.76785 7.31193 -1.28093 4.70731 0.497615 -1.30769 6.01368 0.299292 
-1.71758 6.91824 2.50928 -1.06031 6.87683 1.27449 -0.814398 7.81976 1.83305 
-1.31431 7.92626 4.78905 -1.87748 6.94078 4.0877 -2.12811 5.7722 3.21998 
-1.79724 6.90945 5.48154 -2.02094 5.79091 6.26327 -2.19269 4.48096 2.4602 
-1.79762 3.06627 1.73834 -0.955679 1.25611 0.742041 -1.51539 1.13256 2.58893 
-1.84496 0.831188 4.04319 -2.15579 4.44671 6.73107 -1.4931 3.08899 7.37605 
-1.71236 0.7638 5.53441 -1.59444 0.909583 6.89094 -0.76704 1.29804 8.16735 
-2.39839 2.82178 4.82639 -2.36874 4.3877 5.45593 -2.43768 4.4492 4.09525 
9.31808 0.446775 4.69077 9.64808 5.772 1.75154 9.7264 5.80844 7.28521 
9.0905 0.837241 7.40368 8.9761 0.783001 1.58497 9.21981 3.16583 8.19571 
8.75237 7.53286 8.17797 9.24731 7.81091 6.11188 9.42637 3.0837 0.433856 
9.17153 7.78691 3.31223 8.84456 7.63282 0.703278 10.0016 5.547 4.83958 
9.7819 2.99427 3.06092 9.66909 2.97137 6.06662 8.88293 1.02854 8.38872 
9.36205 0.502566 6.21698 9.16779 0.494152 3.2386 8.81934 0.984357 0.521611 
9.24852 4.67045 8.02636 9.39151 5.88391 8.25367 9.23002 6.78227 7.76361 
9.70838 6.89777 6.7307 9.09386 7.63932 7.29814 9.41434 4.57004 0.909107 
9.22585 5.90477 0.529923 9.64482 6.90312 2.60187 9.22065 6.75793 1.27806 
9.03042 7.66392 1.81191 9.33774 7.83729 4.75193 9.49381 6.67069 4.06493 
9.81245 5.68392 3.25637 9.59697 6.77813 5.42811 9.6227 5.75398 6.18471 
9.91403 4.38769 2.46961 9.50925 3.10211 1.77695 9.40998 1.48607 0.916564 
9.54985 1.17494 2.47554 9.60776 1.14738 3.94692 9.82458 4.23464 6.82419 
9.66865 3.01231 7.34285 9.6493 1.11363 5.50336 9.7414 1.19482 6.83898 
9.04584 1.52153 7.75338 9.81948 2.517 4.74465 9.94384 4.23847 5.43779 
9.89194 4.2719 3.97713 3.81357 -1.80409 1.52125 3.86183 -1.70349 7.35955 
8.53617 -0.890085 4.76443 8.36929 -0.247882 7.61825 8.43321 -0.427948 1.54453 
6.50131 -0.545857 8.35352 1.40097 -0.212363 8.23128 1.08171 -1.33482 6.23911 
6.48004 -0.8202 0.282432 1.06859 -1.40694 3.22723 1.21222 -0.641545 0.316143 
3.90155 -2.40011 4.92412 6.53502 -1.84278 3.2155 6.5566 -1.72797 6.29898 
8.12654 0.429446 8.30768 8.6059 -0.780874 6.30609 8.59885 -0.913175 3.11184 
8.16801 0.117863 0.34092 5.10861 -1.12753 8.06526 3.67897 -1.02285 8.39115 
2.6041 -0.999458 7.77543 2.44425 -1.79898 6.88759 1.28279 -0.875232 7.32317 
5.18841 -1.20488 0.43862 3.79819 -1.16344 0.282378 2.40691 -1.90833 2.41674 
2.58573 -1.23302 1.01426 1.14216 -1.03018 1.64768 0.950301 -1.69297 4.87751 
2.47883 -2.07371 4.05178 3.92996 -2.16116 3.23027 2.47303 -1.9829 5.57696 
3.89004 -2.08056 6.21866 5.29876 -2.09258 2.3151 6.47936 -1.30797 1.52913 
7.90473 -0.754818 0.598995 7.96688 -1.28815 2.25044 8.13519 -1.56577 3.95119 
5.28832 -1.9036 6.77132 6.51707 -1.30441 7.45756 8.09065 -1.43024 5.61007 
8.04735 -1.04785 7.03104 7.80116 -0.347056 8.15827 6.56379 -1.99048 4.95646 
5.30096 -2.21759 5.56822 5.30161 -2.31343 4.01958 3.75797 9.85883 1.83 
3.70782 9.65976 7.32655 8.33857 9.1579 4.89715 8.00821 8.62592 7.41128 
8.24827 8.9782 1.71158 6.52569 9.02566 8.49008 1.30274 8.90503 8.29478 
1.03869 9.35119 6.21463 6.50648 9.37717 0.403277 0.945026 9.40414 3.27592 
1.20197 9.10198 0.576298 3.82391 10.2732 4.78308 6.59902 9.89429 3.24692 
6.61653 9.70924 6.14621 8.00799 8.2855 8.12617 8.25183 9.02845 6.05903 
8.45567 9.32523 3.10215 8.11705 8.54684 0.688489 5.11049 9.35309 8.26992 
3.64953 9.42596 8.37519 2.42135 9.26508 7.93675 2.35531 9.83566 6.77115 
1.15349 9.11011 7.22229 5.09512 9.52582 0.776151 3.61241 9.75234 0.426631 
2.29564 9.93811 2.5911 2.46156 9.39762 1.13955 1.12939 9.22994 1.90068 
0.869081 9.60941 4.78228 2.32557 9.89697 4.13159 3.8294 10.0741 3.18358 
2.31892 9.83109 5.37957 3.78092 9.93467 6.24423 5.34674 9.99085 2.4642 
6.50438 9.42586 1.69499 7.53907 8.94488 0.917418 7.62369 9.2897 2.49217 
7.70051 9.26649 4.00056 5.37938 9.95364 6.94804 6.47366 9.4129 7.42289 
7.79324 9.60445 5.49153 7.86198 9.4081 6.93346 7.62498 8.90587 8.08092 
6.66126 9.94241 4.74403 5.28502 10.0344 5.47005 5.20441 9.90495 4.07702 
1.69298 3.74487 -2.0523 7.32421 3.71472 -1.81332 5.0197 8.52631 -1.34001 
7.69338 8.22721 -0.753473 1.80273 8.23803 -1.00525 8.13053 6.26364 -0.79156 
8.18817 1.29749 -0.504553 6.27917 1.01544 -1.5179 0.51849 6.2736 -1.15495 
3.45638 1.1061 -1.5682 0.723789 1.28672 -0.834836 4.86902 3.7471 -2.47467 
3.25022 6.46497 -2.16722 6.32849 6.51422 -1.95207 8.31646 7.93766 -0.194939 
6.36907 8.32274 -1.09357 3.38123 8.55671 -1.22704 0.717431 8.2013 -0.505101 
8.0485 4.95118 -1.36932 8.34671 3.57742 -1.33766 7.82795 2.46568 -1.25449 
6.80887 2.36892 -1.97967 7.29792 1.09103 -1.14067 0.708898 4.97717 -1.62088 
0.543404 3.55748 -1.50132 2.63068 2.33536 -1.93924 1.2039 2.44361 -1.58364 
1.92013 1.0751 -1.31595 4.97302 0.979463 -1.68392 4.15722 2.28943 -2.2271 
3.26492 3.76491 -2.33286 5.54242 2.33827 -1.97851 6.20076 3.71911 -2.21799 
2.5532 5.11715 -2.28393 1.5978 6.31032 -1.82062 0.965318 7.60865 -1.105 
2.63808 7.73497 -1.47041 4.20551 7.97562 -1.62494 6.72478 5.1833 -2.05183 
7.50209 6.49289 -1.6684 5.71085 7.93762 -1.71183 6.89718 7.77862 -1.28321 
8.04097 7.60474 -0.856977 4.95013 6.56424 -2.2296 5.57243 5.25739 -2.29907 
4.06571 5.25617 -2.42659 1.82306 3.73173 9.845 7.39859 3.72213 9.86206 
5.05465 8.37982 9.68966 7.51772 7.92272 9.22124 1.98608 8.02067 9.21619 
8.19014 6.25596 9.11444 8.0945 1.64064 8.90834 6.2311 1.21359 9.53282 
0.665417 6.2299 9.4697 3.43496 1.08691 9.75534 0.921654 1.45406 9.14279 
4.82952 3.81137 10.1381 3.27039 6.44197 10.1367 6.24615 6.45492 9.80779 
8.04292 7.64111 8.68467 6.29065 8.27556 9.60335 3.38651 8.38867 9.70476 
1.0289 7.83988 8.76514 8.08179 4.84218 9.50626 8.11529 3.57655 9.21493 
7.76324 2.51806 9.57379 6.65181 2.56624 9.59717 7.33485 1.34786 9.38168 
0.771545 5.01499 9.55005 0.753682 3.55 9.44299 2.70193 2.41678 9.84328 
1.33522 2.51883 9.67931 2.03507 1.35136 9.40317 4.94438 1.0203 9.61248 
4.05945 2.47041 9.90332 3.22775 3.83511 10.3486 5.51309 2.33422 10.1737 
6.12416 3.75334 10.0524 2.49288 5.11185 10.1032 1.93632 6.35736 9.57599 
1.17029 7.51785 9.42006 2.6323 7.55273 9.66566 4.18505 7.60949 9.63145 
6.83205 5.10027 9.80378 7.43277 6.43064 9.83212 5.71975 7.6497 9.61706 
6.81011 7.55799 9.48095 7.93691 7.46489 9.28706 4.88854 6.57682 10.1047 
5.57982 5.2911 10.3492 4.03192 5.15686 10.0626 
POLYGONS 709 2124
OFFSETS vtktypeint64
0 3 6 9 12 15 18 21 24 
27 30 33 36 39 42 45 48 51 
54 57 60 63 66 69 72 75 78 
81 84 87 90 93 96 99 102 105 
108 111 114 117 120 123 126 129 132 
135 138 141 144 147 150 153 156 159 
162 165 168 171 174 177 180 183 186 
189 192 195 198 201 204 207 210 213 
216 219 222 225 228 231 234 237 240 
243 246 249 252 255 258 261 264 267 
270 273 276 279 282 285 288 291 294 
297 300 303 306 309 312 315 318 321 
324 327 330 333 336 339 342 345 348 
351 354 357 360 363 366 369 372 375 
378 381 384 387 390 393 396 399 402 
405 408 411 414 417 420 423 426 429 
432 435 438 441 444 447 450 453 456 
459 462 465 468 471 474 477 480 483 
486 489 492 495 498 501 504 507 510 
513 516 519 522 525 528 531 534 537 
540 543 546 549 552 555 558 561 564 
567 570 573 576 579 582 585 588 591 
594 597 600 603 606 609 612 615 618 
621 624 627 630 633 636 639 642 645 
648 651 654 657 660 663 666 669 672 
675 678 681 684 687 690 693 696 699 
[...]
CELL_DATA 708
SCALARS scalars double
LOOKUP_TABLE default
-4.9912484487 -2.9666929238 -6.2375048402 -5.7453130598 -5.3457685061 -9.2339875683 -4.600406117 -5.8894105659 -9.5585579964 
-5.4044548011 -8.5808102785 -5.5038103522 -8.7343846822 0.060783184266 1.3472759599 0.14667892614 -2.0452717049 -1.4293350796 
2.6407685019 1.8655652879 2.6621614418 4.9744116594 6.624595825 5.0311210161 7.4433752982 5.9652593446 6.319670561 
6.8093850918 6.7637989345 1.4921624753 3.0764761649 1.936388481 4.0492486097 -0.62483075123 -2.0584336448 -0.70508291698 
0.043658807831 1.2164440256 -1.1977806354 4.3837756095 6.3773597707 4.0976188267 4.5756464127 6.8936422922 7.4776061342 
7.5259185943 6.8427263651 6.1314355042 3.1771726658 5.2287513755 5.9618953142 2.6813407568 4.6429844918 4.8912443875 
7.420409113 6.9016485211 6.0592423786 7.4348594469 8.0107655758 2.2643016425 3.0318787637 2.7957928529 6.1797662372 
3.3319017914 1.339325623 2.6264696706 4.0889149127 5.3733627575 5.6930177746 4.619802807 0.17128401177 -0.068008570203 
-1.0103324137 -0.36068337135 -6.3267667042 -1.0621357512 -5.4199862929 -2.9629993104 1.0584367235 -3.3551506665 -5.8816958479 
-0.54997289404 0.18359952064 -2.7319634828 -1.973436861 -2.6412760509 1.1843209424 -1.6444912452 -1.6866363577 -1.4888693575 
-2.4502218301 -6.1321776352 -4.7044070132 -6.6690488213 -0.86060064554 -4.3190127984 -5.2702505181 -7.1614050984 -7.4524669275 
-0.72952902681 -0.74421903123 -0.86409308617 -2.0395083432 -2.5976509651 -2.377959871 -2.9319941673 -0.39099416351 2.1330826784 
0.99173356763 1.5218413984 -0.088354659599 1.2943154545 1.6354266061 1.3393932032 0.079874069063 -0.54201884834 -0.44245105983 
-0.014068044137 -2.0079987336 -6.7125828323 -3.8190214003 -0.75856970205 -1.6945060752 0.32706769538 -1.0962126998 -1.6200618147 
1.0975319189 -1.6982175495 1.4738319126 -1.3187897405 0.43309403682 -2.2551377254 -1.717566698 -2.0128071642 -1.4386950256 
0.15303655993 1.2717995878 0.9390465308 2.3331458761 3.4096703147 5.3968548303 3.6247764672 2.8945457607 4.1166268111 
4.0941802619 2.8312597626 2.6132536357 3.6149935372 3.1912102702 3.3083555166 3.6466351669 -0.89530548725 -1.963376386 
0.41993004053 1.5833354109 -0.047185832159 0.12362555233 2.432510233 5.4334152143 2.9536847636 3.7154765409 4.9526935029 
5.7421555321 5.154975622 5.1531499992 4.5184625162 2.4812021902 2.5998340997 2.1763256088 0.95528983642 1.9473293127 
3.9423641936 3.6324018276 4.1649294332 3.6805403769 5.2067204104 4.9964223782 0.80703458536 3.6457367688 2.0452013846 
3.8532669064 1.9910382413 -0.3051128559 -0.3550684114 3.5276984766 2.7857084578 2.0033581939 1.8312066925 0.26389016987 
0.27877801359 -1.8376711223 -1.2592570234 -0.88759371196 -1.8946674005 -2.7379152307 -1.1336064418 -4.8127939426 -2.6514110256 
-1.6758710545 -5.2540355367 -6.4249529226 -0.56260339222 -0.2871570011 -0.12294360005 -0.77466231199 -1.2473255154 0.34909264986 
0.59646821299 0.1042269979 -1.6151271027 -1.7517474335 -4.5696632328 -2.0492239011 -3.0744071335 -2.8191582321 -1.6357849367 
2.8540587989 -2.2002776564 0.40260352093 -1.4450760222 -4.1181408352 -0.4990617366 -1.204374172 -1.3596483618 -1.7118905895 
0.90498875878 0.76138966427 1.6630204608 -0.91205701543 -0.048568936805 1.3766606218 0.66221410385 -0.6084515631 -0.58138026936 
-1.3405259664 -0.57276554933 -5.2640023186 -3.8196118694 -7.8175199686 -7.9800315271 -7.8615119622 -8.855088494 -5.1885932572 
-7.2197613563 -7.4608937702 -6.7347883602 -8.5203006589 -3.7623467811 -7.4327735358 -7.1185000153 -5.6433073608 -8.2737800696 
-5.7498496121 -5.6557531591 -7.2399626998 -5.0150307437 -6.6052751925 -7.1533452404 -7.5964633656 -7.8100068883 -6.8364179797 
-8.3604121069 -7.7923244528 -6.7809067315 -7.4916021607 -7.1605216235 -8.2026518759 -7.3359520308 -6.9993423428 -6.9482216924 
-7.6401259935 -7.6296958622 -8.878499704 -7.7950420671 -7.6046109058 -7.4169899954 -8.6778075864 -8.5916633973 -9.2472615923 
-8.3955704429 -8.4552269471 -7.9380045404 -4.9127102798 -6.4905254663 -7.8577801568 -8.485866735 -8.3211516019 -8.6772068683 
-8.0374091676 -7.0648657379 -4.9922252749 -8.1706132607 -8.6230641747 -9.1782615455 -8.265648084 -8.0031023389 -9.7811637743 
-9.8030392068 -9.8899238692 -9.2062303793 -9.567131042 -9.4901500733 -9.8242654387 -9.6501801951 -9.1563731794 -9.2582058712 
-9.7557565898 -9.0136386078 -9.0694422287 -8.7472025192 -8.5871757399 -5.3788353912 -7.8799967068 -9.5203494361 -3.8674874091 
-7.4146180987 -7.106642271 -7.1517300114 -5.9942968842 -9.3947341742 -9.242406975 -9.3720113639 -8.47643293 -9.0607778655 
-7.4903732509 -8.4400909295 -9.2069080523 -7.5825906121 -6.3590493991 -7.394059174 -5.4828411771 -3.7297711905 -6.1702636877 
-4.0640611079 -4.1185562573 -7.445156644 -9.0737168102 -7.8490646833 -5.6881639636 -9.45470079 -9.742792709 -9.4664762386 
-9.4264270632 -9.4950710225 -9.7069705059 -9.6728664868 -9.5130217638 -9.8970437751 -9.7655600691 -9.9106968353 -9.9296368531 
-9.4816390962 -9.4720067288 -9.7688531941 9.1706424574 8.0563390003 7.7265725645 8.9811063299 8.0212669736 7.6535491969 
9.6803127145 8.0672715593 3.0206240073 8.0874852258 4.4430242212 8.1969799175 8.5351111625 7.5944023308 6.9961218829 
9.7324021173 7.3048797883 5.7060589478 6.6583415571 6.5224333429 6.9850867214 8.9480177995 9.4773718466 8.6706626084 
8.3563688219 8.9620603362 8.0931816832 5.1883700071 8.0220638941 6.2776630141 9.5898909827 8.4099649667 7.9553168331 
5.0783833259 7.4990819047 7.1947472147 9.8084173138 9.3117099676 9.3773424521 8.788490349 9.2308265712 8.837786004 
9.7759627224 8.7623689126 8.7651195746 7.9926353588 6.5279273938 7.0882525563 8.3324803673 9.0330737092 9.5164427652 
9.4782794348 8.6072022102 7.8876959728 6.2928862868 8.1408054876 8.8439374717 9.3490255904 8.2190474449 7.8212627869 
9.8744377778 9.7388051065 9.946619464 9.3764046025 9.5664415479 9.6854432134 9.9755852878 9.6340722496 9.5323463778 
9.5685533134 9.8387022402 9.6266282305 9.9478574904 9.2139363712 9.2158543368 8.5352610043 6.0177823903 8.6510708776 
8.2923648805 6.1522915858 8.5448752983 9.9826541461 9.545383315 9.0227411691 9.1577910108 9.3728710141 9.1349575754 
9.068767433 9.2985035334 8.6567490314 9.7950061306 7.6128978727 5.2090883344 6.5341690579 6.093902363 2.5255388105 
3.6954600031 8.9663116009 5.1440250838 9.2027381091 9.6833349696 8.9352809695 8.5927938894 9.6954064528 8.5295024401 
8.8253977723 9.7512800318 9.6453263384 9.7251476356 9.9770270177 9.975266722 9.7278969697 9.875600207 9.9470961338 
9.7292724038 9.9943608533 9.7402359474 9.9547358878 5.0328701195 6.7691723427 6.4673896073 7.0510362134 6.7124966838 
8.027735902 9.2963716065 6.5626153001 8.439058859 6.7033577492 7.966199056 7.2442737933 2.0995649523 9.7207470396 
3.839058162 0.72293989525 1.7375772339 1.7986249067 2.5106964599 -1.4442151314 -0.039572226626 -1.2404719761 -2.9295442125 
-4.2061562782 -2.8475471494 -5.0881493629 -5.2088132403 -3.6843196399 -3.9840794745 -1.7106058802 -2.4480186592 -1.8967715591 
-3.7448877638 -1.5672559373 2.567264809 2.4457423122 -0.26096488015 1.8347113098 1.3205401791 -0.021912466193 -2.4272722876 
-3.7279718997 -3.7397121678 -3.1112261454 -5.7970498171 -6.1986689889 -2.8616170921 -5.9513787625 -6.3299213305 -5.9322666029 
-3.6945420698 -1.7238343772 -1.9369088187 -0.36812719445 -5.9030493028 -5.6594553024 -5.8586450318 -3.9402135026 -5.6734419064 
-6.1807664977 -1.9072550197 -1.2451110142 -1.8256872732 -3.2534331886 -2.5000939957 -0.13455827001 -1.7239226574 -2.4931799929 
-2.6135952052 -4.358091385 -2.7956474586 0.55727764748 2.211195239 1.959415021 0.88537624012 6.7242294994 7.6177781558 
4.1790709412 0.98003997452 5.8075600752 6.6314336264 4.0375088882 4.3542644408 3.8368262891 2.047107162 3.8416905228 
0.45779251652 1.4204739824 1.8627656055 -0.10672684727 3.0484717071 6.5282257626 7.1240309061 5.8839642562 0.16033288929 
6.9439485453 3.512567588 2.1971522839 2.3214521912 0.26296079528 3.7497582213 4.2266495837 5.0204876362 2.4677573874 
3.6828222425 3.7369726138 1.3683908561 -0.14493362392 0.25759985209 0.35034856773 1.3992355167 -0.15226086198 -0.56392217465 
-0.12779527833 0.76385423109 1.7945206893 1.4690211237 0.92688989168 5.6341577828 0.66381952361 3.8152582734 9.6297837294 
4.6977193785 9.3220732732 7.8894075803 3.9186884288 9.1655928011 5.4345430206 5.6811501254 5.3730972002 6.9102154497 
2.8720182005 2.9451848511 -1.5528279663 -1.9751943311 1.6913865929 1.9388877189 -0.51996980292 0.8267830522 -2.2981039554 
-3.3603628702 -0.92294090219 -1.6679542076 -5.1356889275 -5.1388384208 -2.2053475466 -1.9565330486 -3.6172041522 0.26812373836 
-3.8385885733 1.0831122607 -3.8971309608 2.5560206971 2.9071721472 -0.64354843546 0.0044329668833 1.8334860927 -0.64071938024 
-0.84788598215 -2.1417916506 -3.5922545577 -3.0443226667 -5.8242815665 -2.7210183963 -4.5450289675 -3.2839493365 -3.6852340201 
-4.3070791066 -2.8146502421 0.14651007587 -0.37206465072 -0.87418756339 -1.4495538013 -4.018621563 -4.350963911 -0.88155648593 
-5.3233966597 -4.9304639335 -2.1233272177 -2.3925062776 -3.2592417782 -1.8831755026 0.55696223113 -3.0256700943 -1.2703274504 
-0.63448671959 -4.3358437575 -1.4465088968 -3.0954638702 -0.30481122441 0.57988442511 2.0554819015 2.5035053926 -0.11999502275 
6.1822746077 3.9324557175 8.5876971115 4.484071656 4.4065653232 -0.68737841188 5.6989927913 1.5969770004 0.73733360631 
0.227852646 1.4628386002 -0.11932798298 1.4110936238 -1.1445633327 2.1545055643 5.0203750915 5.9236659006 -0.84516647969 
0.006034211844 3.4340429467 3.0452442852 3.5548258094 8.9871892842 0.4216296285 2.9048948443 3.8497045359 -0.88410772974 
2.507434836 4.0756903482 4.1528594871 1.7709813839 1.0301543513 -1.6952281738 -0.37659627548 -0.41235549143 1.3283176957 
-0.12815316569 1.99782347 -0.50163030151 -0.43741868371 2.994683165 0.84696652327 
