# vtk DataFile Version 5.1
vtk output
ASCII
DATASET POLYDATA
POINTS 356 float
0.0621124 0.0214232 -0.336388 0.333582 0.319184 8.3766 0.376351 8.02496 -0.0376929 
0.646996 7.84287 8.26457 8.27563 0.580267 -0.138197 8.158 0.92557 8.23867 
7.93873 7.70119 0.311534 7.91792 7.51121 8.01026 -0.415704 -0.10808 1.03402 
-1.06643 -0.629331 2.24061 -1.15592 -0.694443 3.81765 -1.14813 -0.598083 5.21321 
-0.837819 -0.43543 6.60712 -0.41013 -0.100866 7.68003 -0.35831 1.06882 -0.265177 
-0.401795 2.27232 -1.13402 -0.789182 3.89077 -1.02586 -0.747489 5.3781 -0.863652 
-0.52 6.45288 -0.457126 -0.0707463 7.50415 -0.633613 0.0988129 8.25853 0.993759 
-0.387339 8.42951 2.3584 -0.475862 8.50404 3.90826 -0.483666 8.5037 5.20883 
-0.285648 8.5137 6.55807 0.349164 8.07785 7.53989 -0.0995511 1.1502 8.43022 
-0.0270331 2.31889 8.94618 -0.381304 3.87344 8.86748 -0.303479 5.31411 8.70696 
-0.142633 6.47554 8.41013 0.529174 7.16699 8.52812 8.50747 0.164741 0.755898 
8.82258 -0.232027 2.16259 9.07395 -0.469754 3.69573 9.00862 -0.393565 5.29962 
8.76803 -0.114486 6.66062 8.34828 0.502518 7.64407 8.62203 1.2891 -0.167224 
8.31442 2.34771 -0.680501 8.59827 3.89256 -0.602904 8.66095 5.26365 -0.445473 
8.50776 6.42514 -0.0486738 8.00628 7.2732 -0.123561 8.02595 8.02356 1.13558 
8.11931 8.26461 2.36488 8.29926 8.33982 3.79694 8.31681 8.33041 5.25782 
8.2402 8.36035 6.57837 8.05676 7.95998 7.4166 8.24944 1.45564 8.17154 
8.35795 2.46752 8.65958 8.63854 3.83122 8.60832 8.49462 5.21955 8.53408 
8.48698 6.41775 8.31987 7.98858 7.17282 8.32227 1.26245 0.12796 -0.681492 
2.42836 -0.718283 -0.816296 4.12928 -0.545715 -1.08959 5.4138 -0.334177 -1.01799 
6.59979 -0.0317205 -0.808297 7.74874 0.127685 -0.620454 1.29013 0.344251 8.79449 
2.54581 -0.144707 8.6837 4.07576 -0.194882 8.95624 5.53768 -0.0409363 8.83755 
6.6288 0.352014 8.61382 7.58988 0.523602 8.55456 1.13626 8.30019 -0.732118 
2.41037 8.5679 -0.686488 4.12507 8.60523 -0.857126 5.4388 8.43416 -0.930401 
6.57183 8.23131 -0.707136 7.38698 8.06812 -0.224623 1.42567 7.77646 8.50507 
2.53089 8.16944 8.54736 4.09067 8.21146 8.77682 5.41824 8.1249 8.75629 
6.55178 7.88931 8.70467 7.35421 7.79023 8.37565 -1.96234 -0.309397 4.5402 
-2.04756 5.60183 1.55538 -1.71849 5.63222 7.10484 -1.00629 0.396757 6.94944 
-1.29446 0.282389 1.49771 -0.969885 3.04444 8.00649 -0.253949 7.35754 8.12045 
-1.31591 7.66729 5.99137 -1.38264 3.095 0.0294198 -1.34266 7.5814 3.09292 
-0.521715 7.35629 0.288908 -2.67748 5.49275 4.57416 -2.56666 2.9174 3.09093 
-2.35789 2.93927 5.93727 -0.151936 0.743989 7.97454 -1.65924 -0.140945 6.03456 
-1.67731 -0.1245 3.04823 -0.609086 0.305204 0.0748764 -1.39854 4.52337 7.91593 
-1.16081 5.74318 8.14883 -1.17687 6.68069 7.51707 -1.85705 6.63554 6.49728 
-0.807757 7.40935 7.0126 -1.83154 4.48126 0.547229 -1.69595 5.72151 0.183297 
-2.02793 6.62869 2.40296 -1.34078 6.53448 1.05895 -1.07264 7.55899 1.66369 
-1.58471 7.65698 4.54663 -2.25519 6.61935 3.93301 -2.56189 5.58491 3.13779 
-2.08181 6.59608 5.18045 -2.34815 5.6126 5.8998 -2.49543 4.38377 2.41086 
-2.19949 3.00628 1.38869 -1.44305 1.05157 0.483711 -1.98073 0.799781 2.31885 
-2.1384 0.518596 3.82009 -2.23706 4.32103 6.40706 -2.03205 2.90719 7.17602 
-2.00468 0.590582 5.2302 -1.75232 0.731689 6.54854 -1.10518 1.07565 7.93262 
-2.64833 2.83367 4.56444 -2.65221 4.37199 5.20669 -2.78232 4.36482 3.87818 
8.99966 0.411488 4.50006 9.43367 5.41565 1.67034 9.36251 5.43876 6.99521 
8.89119 0.770375 7.09331 8.96848 0.605767 1.4991 8.81687 3.08687 7.79555 
8.48875 7.09705 7.82204 8.87162 7.44876 5.92721 8.87654 2.97249 0.320642 
8.95815 7.51539 3.04347 8.30665 7.12569 0.59455 9.4872 5.4603 4.52901 
9.56466 2.74293 2.9427 9.5542 2.83696 5.92281 8.60582 1.10228 8.02198 
8.83779 0.604589 5.87345 8.90237 0.489801 2.98564 8.43599 0.860743 0.310818 
9.22494 4.37487 7.72859 8.7182 5.54155 7.74484 8.91502 6.40158 7.44507 
9.0227 6.48257 6.402 8.57256 7.19716 6.90733 9.29954 4.40324 0.717865 
8.82386 5.61463 0.655969 9.01429 6.47705 2.49721 9.0179 6.52391 1.17406 
8.75418 7.33529 1.75923 8.72031 7.59115 4.55997 9.38987 6.54159 3.8187 
9.64214 5.44801 3.0598 9.36362 6.53475 5.2726 9.67606 5.38623 5.94419 
9.40034 4.13608 2.37309 9.46012 2.9077 1.50911 8.96293 1.36402 0.753419 
9.24681 1.22928 2.2632 9.60383 1.01258 3.769 9.39526 4.1833 6.41403 
9.4678 2.89569 6.9967 9.57424 1.01345 5.2128 9.1846 1.24085 6.4436 
8.76394 1.55738 7.6407 9.55934 2.70648 4.45375 9.83262 4.17014 5.12531 
9.8935 4.19388 3.82099 3.63989 -2.14513 1.31593 3.75385 -1.89325 7.15664 
8.34469 -0.947171 4.53616 8.14 -0.274688 7.31373 8.34376 -0.793939 1.21687 
6.23916 -0.655624 8.31066 1.31134 -0.422665 8.01272 0.909834 -1.71665 5.86226 
6.30534 -1.03966 -0.0115456 0.996363 -1.69801 3.08444 1.06475 -0.826554 0.140772 
3.72345 -2.70315 4.61288 6.28029 -2.16348 3.04789 6.28953 -1.98746 5.93213 
8.03045 0.226612 8.27973 8.24941 -0.651665 5.9577 8.2397 -0.864104 2.94469 
7.95476 0.0276909 0.165352 4.99494 -1.27057 7.72311 3.57961 -1.06683 8.15112 
2.42367 -1.38285 7.54261 2.31523 -1.96366 6.46361 1.04363 -1.21794 7.1587 
4.97693 -1.43636 0.353648 3.55987 -1.41751 -0.0722139 2.28543 -2.19967 2.23619 
2.45803 -1.39207 0.889929 0.938799 -1.45473 1.4219 0.902352 -1.94705 4.58658 
2.29313 -2.4173 3.80142 3.71624 -2.49126 3.1108 2.28883 -2.38413 5.23086 
3.76391 -2.45572 5.81295 4.98405 -2.27562 2.33178 6.25705 -1.76801 1.24239 
7.39001 -0.653085 0.458069 7.65806 -1.27108 2.09131 7.82271 -1.53644 3.72734 
5.06449 -2.19339 6.45487 6.22253 -1.38741 7.20349 7.89344 -1.52211 5.32999 
7.86354 -1.12824 6.745 7.56195 -0.35907 7.80863 6.13394 -2.27216 4.63231 
5.01877 -2.46765 5.1922 4.92758 -2.60696 3.90665 3.56756 9.55711 1.64155 
3.5597 9.3335 7.13894 8.0052 8.94259 4.60317 7.70843 8.33641 7.17126 
7.78719 8.72616 1.61796 6.18506 8.8384 8.29206 1.29303 8.50495 8.12278 
0.940863 9.0087 5.97449 6.10598 8.89423 0.219322 0.816542 9.14897 3.03183 
1.13347 8.5998 0.371259 3.53301 9.958 4.6003 6.19838 9.38819 3.19112 
6.18925 9.35153 5.94652 7.81749 8.05602 7.95027 7.79819 8.62708 5.82416 
7.95883 8.99569 3.0888 8.00047 8.45135 0.370017 4.85983 8.86559 7.83087 
3.4972 8.97789 8.21933 2.35054 8.91234 7.64659 2.22127 9.53134 6.55664 
1.06739 8.84865 7.04714 4.81369 9.20135 0.617764 3.43765 9.37445 0.230847 
2.1369 9.63882 2.39586 2.2259 9.18443 0.909481 0.958864 8.96456 1.73745 
0.657743 9.34066 4.58248 2.0982 9.63004 3.92988 3.56255 9.74883 3.03639 
2.13538 9.58968 5.16532 3.55361 9.65296 6.03571 5.07473 9.79099 2.30375 
6.14348 9.20018 1.4673 7.12416 8.656 0.801485 7.145 8.99569 2.34407 
7.26902 9.08729 3.89278 5.04467 9.53804 6.6486 6.21566 8.9906 7.15826 
7.44978 9.2295 5.2872 7.42565 9.00138 6.62994 7.22911 8.38947 7.71034 
6.26058 9.69539 4.61892 4.90093 9.625 5.19103 4.9233 9.73311 3.92053 
1.51851 3.4417 -2.43269 7.06796 3.48768 -2.22015 4.80504 8.3166 -1.69084 
7.29565 7.92701 -1.05188 1.74908 7.73733 -1.19595 7.93295 6.02779 -1.04967 
7.84482 1.31648 -0.785519 6.03075 0.903392 -1.81214 0.259149 6.04323 -1.56122 
3.36951 0.930341 -2.01164 0.496964 1.02484 -1.21625 4.55484 3.52079 -2.88315 
3.08812 6.03231 -2.65557 6.01235 6.14076 -2.34845 7.92674 7.52491 -0.359751 
6.08917 8.07447 -1.35202 3.23813 8.30555 -1.64744 0.691414 7.62535 -0.493386 
7.86878 4.74388 -1.69652 7.82141 3.39561 -1.35824 7.58512 2.23303 -1.58776 
6.40982 2.24093 -2.22576 7.01206 1.06655 -1.37385 0.550106 4.71146 -2.04904 
0.288028 3.44597 -1.71232 2.46685 2.05875 -2.4815 1.13746 2.29047 -1.91923 
1.74077 0.878509 -1.80939 4.68322 0.751907 -2.12637 3.94474 2.20432 -2.67259 
3.19433 3.50312 -3.01229 5.23337 2.12197 -2.63354 5.8766 3.5794 -2.6507 
2.38502 4.76658 -2.78417 1.58037 6.01896 -2.04476 0.792324 7.30778 -1.34637 
2.45243 7.50059 -1.89941 4.05981 7.5392 -1.88393 6.39449 4.90549 -2.36852 
7.16422 6.09642 -1.93844 5.49144 7.56267 -1.83945 6.57275 7.38195 -1.49486 
7.63743 7.15966 -0.877862 4.7111 6.19315 -2.60878 5.19874 4.79543 -2.76074 
3.91581 4.81534 -2.86814 1.74819 3.47588 9.80876 7.07323 3.57015 9.70612 
4.75122 7.85989 9.35876 7.07211 7.45934 8.79253 1.90556 7.65968 9.02958 
7.84467 5.89702 8.86866 7.92451 1.52723 8.77912 6.02456 1.13926 9.43922 
0.540369 5.9283 9.19809 3.28928 1.07438 9.48026 0.872642 1.28834 8.71433 
4.56121 3.67415 9.86575 3.15931 6.0518 9.83689 6.04332 5.99082 9.66274 
7.87785 7.52586 8.55773 5.96849 7.58521 8.92987 3.27567 7.77666 9.14498 
0.898746 7.53838 8.77424 7.76992 4.7566 9.40106 7.74983 3.50124 8.89713 
7.57398 2.4137 9.2681 6.40745 2.42241 9.44682 7.05005 1.31706 9.19299 
0.801243 4.67876 9.42462 0.723736 3.37359 9.18585 2.57114 2.2509 9.51227 
1.18001 2.31728 9.54207 1.91407 1.09286 9.37215 4.70011 0.968389 9.2696 
3.92904 2.24471 9.92298 3.1104 3.58902 10.1426 5.25105 2.31318 10.0097 
5.97799 3.63515 9.98674 2.49274 4.85786 9.63198 1.84774 6.07529 9.57792 
1.21418 6.98715 8.91253 2.55478 7.09977 9.21924 4.00904 7.13444 9.31001 
6.45349 4.84206 9.55864 7.05128 5.94916 9.43662 5.43542 7.23721 9.41872 
6.50668 7.17719 9.13033 7.64648 7.01454 8.88801 4.65089 6.13945 9.61574 
5.28824 4.91464 10.0282 3.92654 4.94748 9.99034 
POLYGONS 709 2124
OFFSETS vtktypeint64
0 3 6 9 12 15 18 21 24 
27 30 33 36 39 42 45 48 51 
54 57 60 63 66 69 72 75 78 
81 84 87 90 93 96 99 102 105 
108 111 114 117 120 123 126 129 132 
135 138 141 144 147 150 153 156 159 
162 165 168 171 174 177 180 183 186 
189 192 195 198 201 204 207 210 213 
216 219 222 225 228 231 234 237 240 
243 246 249 252 255 258 261 264 267 
270 273 276 279 282 285 288 291 294 
297 300 303 306 309 312 315 318 321 
324 327 330 333 336 339 342 345 348 
351 354 357 360 363 366 369 372 375 
378 381 384 387 390 393 396 399 402 
405 408 411 414 417 420 423 426 429 
432 435 438 441 444 447 450 453 456 
459 462 465 468 471 474 477 480 483 
486 489 492 495 498 501 504 507 510 
513 516 519 522 525 528 531 534 537 
540 543 546 549 552 555 558 561 564 
567 570 573 576 579 582 585 588 591 
594 597 600 603 606 609 612 615 618 
621 624 627 630 633 636 639 642 645 
648 651 654 657 660 663 666 669 672 
675 678 681 684 687 690 693 696 699 
[...]
CELL_DATA 708
SCALARS scalars double
LOOKUP_TABLE default
-5.3217191489 -0.56094728495 -4.4826825964 -8.6869283331 -4.7950847533 -9.2209631216 -3.4819730598 -6.283212898 -7.2239732847 
-4.8956402026 -6.0145136967 -6.9582401002 -8.2525585959 -3.5056207183 0.83697622848 -0.48194896277 -1.3831717615 -1.7073203091 
2.7890636801 1.1928585667 2.1158228831 6.1257349055 5.8005657848 6.2306695504 3.9262457978 5.2865806008 5.2947638603 
7.579544105 7.4723421783 2.3956617456 2.750881319 1.7156778959 4.707362552 -1.5494045507 -1.0866848644 0.33938000917 
-0.74909766464 0.85288572504 -1.0765766028 3.8036401189 6.4707877664 4.4131036485 4.5752262563 7.1681628626 7.0128452136 
6.9605599044 7.2822134384 6.8130753715 3.7567311864 5.3851204973 6.8046786631 3.8945469819 7.5419726705 3.0971551761 
7.5273377623 7.4412772724 6.3169492071 7.4326235158 7.9370186599 2.6171998922 3.2268551918 3.7495426959 5.09745457 
3.8361029266 1.5479067432 3.5714330359 4.1330830443 4.9384620672 6.0121794134 4.8305685639 1.1437830528 -0.82613762729 
-0.51454225262 0.4488115124 -5.25517269 -1.7267931698 -7.0204173072 -2.1559880165 -1.7822607116 -5.025136827 -5.5488930387 
-4.2796117765 -5.5026471082 -1.8625471265 -0.89850393206 -2.1925654335 0.94047408164 -0.019011586092 -1.2583411842 1.2810555787 
-2.0566816608 -5.7357885826 -4.0886486858 -2.2310999086 0.21066381073 -2.8700934117 -7.106552522 -4.3110040923 -7.0224264497 
0.12870175291 -1.9282139268 -2.4244355894 -1.2305139401 -2.0893284402 -1.945797673 -2.4569967823 -0.28079081341 1.0448848841 
1.0825985507 0.47795976294 -0.41530310493 1.3555723938 1.3246506195 0.61237052041 0.32452977523 -1.1431328779 -0.9131189707 
-0.43260106444 -2.9296041801 -6.0336267675 -3.1766402545 0.77583689051 -3.6536111858 0.49164033963 -3.738652292 -2.5879344786 
0.64045061289 -2.6828159227 -3.9271648027 -2.9090916261 -0.85676955263 -3.6914916555 3.1355654307 3.6262719824 -1.7488613007 
-2.5360045194 0.58670482763 1.1419082092 3.7009037742 4.6541983848 3.0994723946 4.631195339 6.0310801868 3.4816043632 
3.4845373089 5.6599299332 4.928482812 4.3887863532 0.5137277931 3.0156374567 -0.51935878287 -1.4428179519 -0.74075760403 
3.0747178851 -1.4880725948 0.14061865216 3.436755887 3.5716996157 1.4470230372 5.2492733741 3.0042983263 6.8706004593 
4.8003555658 4.2678216236 6.3254128051 6.4033759287 5.4713990655 1.0004243279 0.23501549692 1.9630832263 4.175125952 
4.7547976174 5.0901845533 5.5160763434 1.9653705266 5.6352455217 4.8444736354 4.5767013663 1.5564930333 3.9001733237 
2.8494484904 1.9482141829 4.2110340397 4.0171277647 1.0164458711 4.9778423061 4.7646118651 5.2876894553 -0.64975766366 
-1.3903584694 0.9190771735 0.81803044441 0.99401030287 -4.4010880054 -3.3374491126 -0.93924127933 -5.9626852998 -2.8532262631 
-3.2252947065 -6.0761247209 -1.8731938579 -1.6553097907 -0.71126645289 -2.1094713561 -0.35998651662 0.89887657162 -1.9945218458 
1.065556322 -1.1382963357 -2.4933392801 -2.4925450782 -6.6412461817 -0.74308555434 -3.6625298041 -0.94381460315 0.41950165198 
3.5266345453 -0.91347087546 -1.969390022 -2.7876823561 -6.996615558 0.0997081616 0.24594998347 0.17977266358 -0.054794239681 
-1.0906136601 2.0513645368 -0.94690835665 -0.19852357066 2.5318038142 -1.0533958089 -0.058217168196 2.7973346372 -2.1995426134 
-1.9259450162 -2.0196118704 -4.4177934354 -1.4276749923 -6.6705299896 -8.2427039706 -7.0036775628 -8.0061306421 -4.2971924017 
-7.2979003452 -7.9294651815 -7.4499206131 -2.9373868745 -6.8025712068 -5.9108589429 -6.2064249853 -6.400452901 -7.5879349804 
-7.0721175498 -3.8330455165 -6.6573529238 -6.2016653934 -6.9683228625 -8.5653944789 -6.596440457 -8.7558128125 -8.4599748244 
-8.1878008562 -7.8507109789 -6.7901853242 -6.6479447392 -7.0040984972 -7.7380630821 -6.4297681479 -6.5213503976 -6.9015744194 
-6.4419583283 -6.2475160769 -8.7529734984 -7.8808815282 -7.9379895059 -7.9276338017 -7.9397261547 -8.9724649453 -8.8670048504 
-8.3953526188 -8.9633270541 -7.04165613 -6.2405891418 -7.947420507 -6.634393241 -9.0057241602 -9.1614222997 -8.2836331323 
-8.8307234038 -7.5068272199 -5.2205414787 -8.4641485281 -8.2904984631 -8.9506222488 -8.6874398744 -8.4233921104 -9.7891760191 
-9.8333973316 -9.8372173198 -9.0293949947 -9.7051099204 -9.138511951 -9.3122611642 -9.7788983455 -9.1528346187 -8.988095027 
-9.5066123165 -9.013242323 -8.6038919039 -9.5657848843 -9.2003749721 -8.2403558759 -4.4090226495 -8.786424931 -6.8062790226 
-7.3923769488 -7.5267582306 -6.6157272294 -9.1399903008 -8.7973381563 -7.7413191693 -7.7719533792 -7.9805321091 -8.497639323 
-8.2566831329 -7.919382592 -8.9785812704 -6.0752524337 -5.5122726864 -4.6366768212 -4.0290271893 -6.6288345889 -5.7350678021 
-0.4220224121 -6.4568269071 -7.783513383 -8.6902463811 -7.3553176116 -6.4090867261 -9.2924072745 -9.217439418 -9.1854065937 
-9.4950754065 -9.2244496881 -9.7611795027 -9.7361565455 -9.6187645425 -9.9019451533 -9.8032304616 -9.7805526204 -9.8595865921 
-9.565689208 -9.5030720326 -9.7230439411 7.4925703278 2.0763255284 7.8572613504 8.6338189669 6.6011488635 4.4691896377 
7.456224224 7.2374017794 3.3793695143 7.817645052 4.0802263628 8.046816115 -0.013717195248 -0.7594301686 7.3068140996 
9.3356635191 6.8885335819 4.375137697 6.898037495 5.1011031749 7.9696610216 8.6138541156 9.1962724958 8.7824449445 
8.2194730268 9.3910226912 7.2456749197 6.6923954593 7.4868159939 4.2966500351 9.3385772962 7.7047435047 6.8440052369 
4.17661653 8.4254228314 8.2615077643 9.7650421353 9.0621016127 9.0670371553 8.5751754275 9.4959391979 8.9337768261 
8.9667796409 8.9116944674 8.7296827936 8.4683123935 8.3079920668 8.3025724566 8.4553128012 8.8508804952 8.8174039927 
9.7150109906 8.6188346233 7.9026388498 9.4738444541 8.4058393914 9.3366060016 9.3700791186 8.3695487491 8.0554900253 
9.905631506 9.7784226611 9.968993407 9.1363182823 9.633967011 9.6035965296 9.9626859485 9.7001684911 9.2472091999 
9.554452999 9.8286823905 9.4400916758 9.5858484342 9.0414184444 9.0807009522 8.3785180153 5.7942488874 9.4434463567 
8.6135442005 6.6007636854 7.6448362958 9.9627878682 9.6324298116 9.4952094754 9.0880116567 9.0823277796 8.6523795158 
9.1260839729 9.9087341291 8.4407449049 9.6893583798 6.5945049329 6.5560479199 5.7011820496 5.0277318184 8.7814149478 
6.4185490911 1.9599679293 7.4818512446 8.8230882115 9.527843469 8.323471091 9.3869341003 9.4029427706 8.9674531975 
8.9025037627 9.8195192231 9.5969893788 9.6785637404 9.9704122154 9.5402332859 9.8683417083 9.8631478715 9.9933529936 
9.7592489815 9.6686338408 9.6576447007 9.9629510242 3.7007140007 7.1520281165 5.4227226474 8.8853456813 6.1598393142 
9.6371473203 9.3400038685 6.26341327 9.5143027194 6.8582288107 5.7237275845 4.6088770862 7.5238829574 2.2161308434 
4.2528244852 -1.9058721056 -1.8715123816 2.937341295 2.5976692584 -0.99103196149 0.23815772138 -2.3998620502 -4.2092107173 
-3.7565651713 -3.6716748957 -5.3493674384 -5.0823300113 -1.5119346647 -1.5738401642 -1.9750257035 -0.22571949675 -2.8895705148 
-0.35686780311 -3.1593623617 3.8037039771 3.9138480677 -1.2391590832 1.4390975825 1.0087087272 -1.0124660147 -2.5298994777 
-4.472212038 -2.5517092062 -2.4493625587 -5.5627761867 -6.8985082359 -2.4781850874 -6.0729615426 -6.0192986947 -5.5244669294 
-2.5776938985 -2.1238025839 -1.7065514935 -0.78525329309 -4.477129185 -6.0708766245 -6.1453722782 -4.3291912126 -5.7779830877 
-6.5531786295 -1.8335473509 -2.0006754371 -3.0186100019 -3.6411594498 -0.89378664578 -1.6670944593 -1.5995954925 -1.6658917157 
-4.2297971259 -4.0790865971 -3.4929373368 -0.030970144417 2.6105982545 2.9079598757 2.893048312 1.3134285074 5.5186013079 
4.5702107716 9.3073634429 6.5112002844 6.2064317336 2.9689116065 7.9611413043 2.989044749 2.8971229814 2.8396668771 
1.0625372676 1.1942700191 2.7396042686 0.56289567141 4.2461611824 7.19434675 6.7860513479 4.1093481411 2.8782882518 
6.013132712 0.29794886216 2.3271919292 -1.1255037788 2.853228808 4.36295569 4.8121317683 2.1672232627 3.9324654089 
4.6623998647 4.8127640497 1.0844745449 0.65173217588 0.072485831689 0.83381347785 1.3302630776 0.57728251007 -0.37843936246 
1.4083931974 0.53063154407 1.790585583 1.7456752868 1.3686829162 6.0450061085 8.9388770046 5.0886038689 4.1965639396 
5.4456684656 8.8499743085 5.9128596001 4.2633849014 7.5843247865 5.233790039 8.2624941702 3.8058541831 3.529679625 
8.3244324002 4.5878616524 -2.6526177574 -3.4636946465 1.4808027769 2.8363352912 -0.30024714051 1.1182880042 -2.9604036258 
-2.7960363576 -0.79034746794 -1.3823583423 -5.8147919794 -5.5600623376 -3.6426886386 -3.3863215478 -3.1753040753 0.92197838704 
-1.8351489169 1.7092485351 -0.90210675768 2.7344413964 4.9179477105 -1.2601892243 0.44064770181 1.2263277507 -1.5016663925 
-2.2892664223 -0.75363892541 -4.2421673732 -1.2855457704 -4.6424064207 -1.7335028106 -1.9160226082 -0.97718442636 -5.3306705688 
-5.1341897416 -5.0730055323 0.60788588863 1.1056362657 -0.16068136095 -3.8417912656 -4.339144114 -5.3610206046 -1.9919336908 
-3.1629512006 -3.1293628259 -3.5253958439 -0.44666246811 -3.1632919802 -1.3772435961 0.63005516399 -3.3244992431 -2.287946524 
0.70313268631 -4.6462029452 -4.018301566 -4.7133700978 1.9949501164 1.1206734904 -0.59518025819 -0.19313580784 2.5954569572 
4.9011651023 4.7808174799 -0.71248111001 4.868482845 4.2120011016 1.7750593481 0.65024075034 4.2691460736 4.1996779713 
4.6141820275 1.7566249899 -0.10422050638 3.181311978 0.43664231076 3.0747845945 5.7040957268 4.8354065467 6.5651727269 
0.93043815411 5.4722353554 4.9827464909 2.5981114221 -0.65109620485 0.89528048674 3.267121529 3.3427891021 0.11601393766 
1.8585197872 3.5943435974 2.3847255312 0.50411709022 2.327630925 -0.79105928367 1.7394297561 -0.32257229542 -0.026079878176 
2.5423824752 2.5457957519 -1.1231231698 2.2451259804 3.2020408193 3.1023575445 
