# vtk DataFile Version 5.1
vtk output
ASCII
DATASET POLYDATA
POINTS 356 float
0.079284 0.124906 -0.242211 0.325544 0.379888 8.38477 0.484209 7.8192 0.0458183 
0.641362 7.84611 8.36009 8.26726 0.556651 -0.17048 8.06763 0.862565 8.21823 
7.87578 7.59531 0.247629 7.92971 7.60068 8.14939 -0.659421 -0.420453 0.828947 
-1.11201 -0.64506 2.22928 -1.38299 -0.885029 3.80415 -1.27996 -0.748731 5.2539 
-0.961475 -0.328471 6.56148 -0.371033 -0.186208 7.62388 -0.527739 0.943309 -0.489418 
-0.364003 2.32748 -0.971887 -0.69488 3.80085 -1.07403 -0.84212 5.39691 -0.883097 
-0.616778 6.57118 -0.537113 0.153458 7.333 -0.44328 -0.0432418 8.29529 0.987966 
-0.319292 8.39574 2.32621 -0.636657 8.48958 3.92408 -0.417807 8.35776 5.19385 
-0.366203 8.37024 6.53796 0.375179 7.99731 7.43596 -0.215138 1.03939 8.48405 
0.0591911 2.31076 8.71915 -0.246255 3.85048 8.62536 -0.388224 5.27691 8.76092 
-0.314331 6.52545 8.58985 0.655958 7.10297 8.29609 8.68265 0.00113334 0.617227 
8.92528 -0.361626 2.07324 9.02243 -0.454775 3.67914 9.08921 -0.462835 5.26942 
8.7038 -0.0733432 6.59712 8.3849 0.458932 7.59458 8.32207 1.23831 -0.157093 
8.46129 2.28745 -0.745129 8.60701 3.88795 -0.617806 8.50444 5.1873 -0.418946 
8.50426 6.43823 -0.0749345 8.07622 7.21192 -0.13393 8.00104 8.04377 1.066 
8.1148 8.14585 2.38934 8.14872 8.30504 3.80565 8.14567 8.23528 5.23828 
8.00589 8.07674 6.42545 8.12795 7.9331 7.4433 8.28588 1.43515 8.28304 
8.40776 2.43863 8.73237 8.5364 3.83986 8.46679 8.55398 5.13333 8.60267 
8.45493 6.36224 8.24653 8.24332 7.19171 8.44049 1.11132 -0.040863 -0.927512 
2.45795 -0.619933 -0.748781 4.05575 -0.630504 -1.09407 5.47325 -0.424883 -1.1335 
6.63961 -0.0852544 -0.890911 7.61225 0.167415 -0.537832 1.30002 0.286057 8.84892 
2.46111 -0.292818 8.65236 4.03353 -0.157801 8.86086 5.51719 0.0287234 8.82073 
6.6059 0.228021 8.66825 7.48461 0.564249 8.39394 1.12714 8.09815 -0.686676 
2.32805 8.60446 -0.831873 4.06962 8.73633 -1.0329 5.46531 8.61539 -1.06004 
6.54135 8.25087 -0.844199 7.39835 8.12146 -0.317322 1.48802 7.77305 8.62645 
2.40495 8.14527 8.5442 4.07547 8.21227 8.65208 5.43363 8.14623 8.79733 
6.61909 8.05213 8.68024 7.56139 7.76648 8.53983 -1.68706 -0.078372 4.47846 
-2.12533 5.52492 1.53387 -1.84347 5.68486 7.0895 -0.938035 0.374016 7.09212 
-1.19308 0.323819 1.47717 -1.2088 2.94811 8.23999 -0.213884 7.29645 7.98445 
-1.24776 7.58832 5.88038 -1.64797 3.0011 -0.0413063 -1.45013 7.53714 3.09391 
-0.605273 7.39201 0.27293 -2.71016 5.43788 4.53236 -2.62443 2.90139 2.99604 
-2.54014 2.88022 5.98283 -0.268407 0.621303 7.9539 -1.47666 -0.0308157 5.88201 
-1.53237 -0.0313996 3.08054 -0.487435 0.493836 0.233474 -1.50811 4.43537 7.85223 
-1.04562 5.66423 7.88143 -1.16254 6.59178 7.36777 -1.72004 6.60305 6.38883 
-0.898486 7.45187 7.08419 -1.94858 4.43947 0.299735 -1.458 5.61751 0.339001 
-2.02859 6.62303 2.35034 -1.60966 6.59503 0.960979 -1.05906 7.47428 1.68661 
-1.62007 7.58757 4.54154 -2.3563 6.57099 3.91044 -2.53016 5.58017 3.08542 
-2.13076 6.57356 5.21385 -2.38807 5.57038 5.83588 -2.64327 4.33393 2.40268 
-2.11284 2.99503 1.43816 -1.44099 1.04008 0.461704 -2.11953 0.687779 2.28937 
-2.28799 0.456885 3.78147 -2.37337 4.34815 6.44138 -1.80317 2.94979 6.96086 
-2.11625 0.462114 5.25869 -1.79852 0.720666 6.52807 -1.12273 1.08338 7.83633 
-2.61736 2.83176 4.5532 -2.60545 4.36206 5.20685 -2.84233 4.35432 3.86836 
8.90526 0.378697 4.47409 9.41039 5.44272 1.6542 9.44974 5.46351 6.97403 
8.75055 0.831381 7.04267 8.80774 0.653182 1.45949 8.7419 3.01977 7.79931 
8.1889 7.05304 7.66991 8.82582 7.38564 5.87521 8.85565 2.99228 0.323037 
8.96046 7.44756 3.02774 8.29044 7.15901 0.653782 9.47598 5.43722 4.4814 
9.58482 2.72681 2.93391 9.59981 2.79278 5.86464 8.5296 1.07942 7.93817 
9.06231 0.545643 5.92024 8.91304 0.475226 2.92597 8.11894 0.957361 0.466228 
9.22485 4.34523 7.70058 8.71952 5.49165 7.70641 8.85221 6.37458 7.42939 
8.93018 6.40541 6.35304 8.70956 7.25135 6.94859 9.33383 4.29806 0.717229 
8.792 5.5446 0.527479 9.11115 6.44258 2.42673 9.03725 6.43247 1.15494 
8.81982 7.40743 1.72595 8.69867 7.5841 4.45179 9.33014 6.55435 3.80986 
9.63743 5.37534 3.03664 9.26428 6.48431 5.22251 9.61301 5.44576 5.88472 
9.40491 4.09622 2.38433 9.40958 2.85948 1.5074 9.05926 1.45335 0.628002 
9.15148 1.2207 2.25926 9.45275 0.946924 3.76154 9.41426 4.14257 6.3642 
9.34257 2.91379 6.96385 9.44618 1.03135 5.09639 9.18172 1.24278 6.47803 
8.68472 1.53935 7.5534 9.45124 2.7205 4.43782 9.83727 4.19802 5.10303 
9.84305 4.19616 3.83705 3.60912 -2.04455 1.33094 3.70614 -1.96016 7.10684 
8.29643 -0.984752 4.5246 8.30788 -0.42564 7.32041 7.92916 -0.427984 1.39635 
6.21566 -0.782632 8.21096 1.35973 -0.364107 7.96569 0.863747 -1.92107 5.90027 
6.16824 -1.09131 -0.0122661 0.844264 -1.92905 2.96843 1.09796 -0.763369 0.0873717 
3.73138 -2.61286 4.54922 6.17754 -2.18543 3.03903 6.28383 -2.08077 5.90798 
7.93996 0.357282 8.09414 8.13082 -0.679709 5.9343 8.30659 -0.981134 2.86929 
7.81792 0.126954 0.140907 4.94261 -1.24051 7.83056 3.57082 -1.02021 8.05437 
2.34878 -1.50133 7.59164 2.35387 -1.87191 6.34039 1.05521 -1.20833 7.08676 
4.91696 -1.62384 0.179424 3.55414 -1.30414 0.0497813 2.27453 -2.22297 2.22862 
2.34874 -1.70532 0.720223 0.981122 -1.23742 1.48368 0.932234 -1.84992 4.51969 
2.28724 -2.48218 3.7771 3.73597 -2.48339 3.09453 2.31268 -2.45644 5.15191 
3.72337 -2.46806 5.77616 4.94704 -2.23998 2.2991 6.24883 -1.73061 1.24633 
7.61029 -0.875064 0.312928 7.70946 -1.40765 2.03706 7.82876 -1.65172 3.70868 
4.98419 -2.17276 6.33001 6.23787 -1.50398 7.15592 7.82018 -1.55258 5.33942 
7.72009 -0.972218 6.67949 7.59155 -0.354613 7.91625 6.02459 -2.21754 4.59067 
5.00158 -2.50076 5.20299 4.88317 -2.55423 3.91067 3.53721 9.53096 1.63823 
3.54575 9.22962 7.05846 8.00939 8.99047 4.59428 7.76076 8.3824 7.19527 
7.74285 8.59273 1.71701 6.03087 8.43908 8.00375 1.17291 8.47629 8.05569 
0.839654 9.17944 5.99787 6.07164 8.80521 0.269499 0.814799 9.06092 3.08296 
1.07416 8.59111 0.371 3.48274 9.963 4.51445 6.25259 9.49325 3.11975 
6.17174 9.31602 5.90783 7.58404 7.91849 7.77628 7.91782 8.81125 5.92393 
7.946 9.07018 2.92168 7.78801 8.17334 0.321921 4.75765 8.82371 7.83284 
3.46019 8.99193 8.21828 2.37519 8.93459 7.64439 2.1834 9.47561 6.51293 
1.00301 8.82776 7.03127 4.81564 9.28533 0.555388 3.44242 9.02756 0.310457 
2.06566 9.51591 2.30944 2.25683 9.32085 0.857644 0.991633 8.87574 1.66065 
0.636813 9.21981 4.44604 2.07504 9.73182 3.92466 3.57483 9.78236 3.05842 
2.12246 9.4712 5.16951 3.55548 9.76952 6.05057 4.9573 9.56141 2.27612 
6.09603 9.31592 1.45702 7.13982 8.71168 0.765705 7.03437 8.88818 2.37177 
7.19842 9.01414 3.91947 5.03037 9.60189 6.66947 6.15228 8.95145 7.14415 
7.21993 8.96376 5.24189 7.27467 8.77484 6.55325 7.23569 8.44791 7.7033 
6.20352 9.65258 4.6056 4.88563 9.61884 5.22446 4.91118 9.75973 3.91774 
1.59151 3.47783 -2.33413 7.0598 3.53526 -2.30299 4.72909 8.10629 -1.55704 
7.13778 7.72126 -0.919438 1.69974 7.81948 -1.22643 7.90182 5.98784 -1.16445 
7.77806 1.27815 -0.803519 5.91466 0.88501 -1.86269 0.263149 5.99406 -1.53766 
3.31169 0.815396 -2.18804 0.504788 1.07356 -1.22039 4.56904 3.49402 -3.02894 
3.1197 6.01305 -2.50871 5.9767 6.09943 -2.24579 7.84837 7.62497 -0.350825 
5.93365 7.86286 -1.25466 3.26014 8.0515 -1.38104 0.493061 7.83846 -0.767591 
7.65526 4.7082 -1.62864 7.81138 3.41539 -1.39477 7.52754 2.26832 -1.64649 
6.46524 2.15575 -2.28885 7.05416 1.03928 -1.41011 0.454001 4.70718 -2.11123 
0.286316 3.32153 -2.01541 2.46167 2.04441 -2.55731 1.1059 2.19556 -2.0525 
1.84813 1.01749 -1.58291 4.6588 0.826061 -2.09156 3.88612 2.16579 -2.62107 
3.19441 3.44236 -2.93037 5.23339 2.13931 -2.63813 5.82829 3.49158 -2.58888 
2.46154 4.75834 -2.7911 1.52552 5.99602 -2.13736 0.776324 7.19676 -1.328 
2.44452 7.42221 -1.9453 4.02684 7.59614 -2.04524 6.31464 4.84445 -2.48417 
7.06844 6.03226 -1.93635 5.4325 7.6526 -1.91308 6.57455 7.48659 -1.63256 
7.63445 7.16725 -0.904189 4.68069 6.07365 -2.64376 5.20655 4.81688 -2.87427 
3.8638 4.76922 -2.92252 1.82432 3.45911 9.59661 7.01678 3.5621 9.65381 
4.67166 7.75479 9.10788 6.93336 7.34824 8.65589 1.88213 7.49327 8.91588 
7.84935 5.8504 8.80556 7.77209 1.5464 8.71888 6.00336 1.17404 9.30301 
0.640725 5.8596 8.90891 3.31425 0.983483 9.46621 0.793854 1.31507 8.84904 
4.53803 3.59387 9.80726 3.10117 6.05049 9.87306 5.92661 5.96901 9.66292 
7.5158 7.17734 8.17588 5.9832 7.53878 8.8608 3.40157 7.70295 9.03405 
0.831093 7.54819 8.79845 7.73776 4.75129 9.39318 7.79419 3.48435 8.94627 
7.52294 2.45632 9.13578 6.39446 2.34302 9.44745 7.03305 1.33168 9.09997 
0.762567 4.68346 9.40207 0.574221 3.32967 9.40679 2.52626 2.10916 9.6441 
1.21563 2.36805 9.49927 1.86807 1.21357 9.23983 4.71138 0.956419 9.13779 
3.94254 2.23979 9.91313 3.12675 3.48795 10.0281 5.26039 2.27368 9.84919 
5.98528 3.6582 9.92497 2.44528 4.75801 9.73583 1.79473 5.97528 9.52187 
1.16465 6.9633 9.0668 2.58293 7.07989 9.09837 3.9392 7.09433 9.45424 
6.41634 4.89162 9.50577 7.05846 6.00242 9.35026 5.42536 7.25237 9.52002 
6.52572 7.08123 9.17588 7.63919 6.99952 8.88942 4.60006 6.10431 9.59741 
5.2392 4.82663 9.98256 3.89133 4.90763 10.0656 
POLYGONS 709 2124
OFFSETS vtktypeint64
0 3 6 9 12 15 18 21 24 
27 30 33 36 39 42 45 48 51 
54 57 60 63 66 69 72 75 78 
81 84 87 90 93 96 99 102 105 
108 111 114 117 120 123 126 129 132 
135 138 141 144 147 150 153 156 159 
162 165 168 171 174 177 180 183 186 
189 192 195 198 201 204 207 210 213 
216 219 222 225 228 231 234 237 240 
243 246 249 252 255 258 261 264 267 
270 273 276 279 282 285 288 291 294 
297 300 303 306 309 312 315 318 321 
324 327 330 333 336 339 342 345 348 
351 354 357 360 363 366 369 372 375 
378 381 384 387 390 393 396 399 402 
405 408 411 414 417 420 423 426 429 
432 435 438 441 444 447 450 453 456 
459 462 465 468 471 474 477 480 483 
486 489 492 495 498 501 504 507 510 
513 516 519 522 525 528 531 534 537 
540 543 546 549 552 555 558 561 564 
567 570 573 576 579 582 585 588 591 
594 597 600 603 606 609 612 615 618 
621 624 627 630 633 636 639 642 645 
648 651 654 657 660 663 666 669 672 
[...]
CELL_DATA 708
SCALARS scalars double
LOOKUP_TABLE default
-5.2267189422 -2.2373689444 -5.8688524767 -5.240480842 -5.6714852771 -4.256912735 -3.4410516971 -5.0604526123 -3.3805858516 
-4.8621864739 -3.3596045338 -4.3197531071 -2.8026046999 -0.24882166497 2.3977397151 2.546123855 -0.14562921684 1.3205057494 
1.3161796104 -1.3350794736 4.4536378484 4.0871014823 5.3150382935 3.9542705381 -0.87150171259 6.0181084715 6.341625081 
7.3950827912 7.5360237662 6.2273001185 2.9343146098 4.945776318 2.1234884944 -1.9535650197 -2.52326837 3.5865913868 
0.061181807423 0.13179256687 3.5243409275 2.8997978965 6.4738129986 6.5907576716 6.4660633163 7.2322974509 6.5216612925 
7.0878083279 6.9281072957 6.9905336221 4.905516768 1.6532373988 2.1860302576 2.9826066121 7.7058541002 6.0259157698 
7.8752402514 7.4094619743 6.0986301531 6.9817646924 7.7921771263 2.6933029122 2.4862136151 3.1711696982 5.2564591311 
3.5304531878 3.7552064607 4.038640438 3.7212999828 5.5239549705 6.2763407282 5.1990905454 1.8825902197 -1.2712446585 
-1.4344737542 -1.4315112616 -1.5061220725 -6.2399731852 -4.9419011314 -1.7830395445 -7.3601344158 -6.0369224382 -5.3377468727 
-7.3663871272 -7.1688315006 -1.1389984641 -1.7499047273 -1.328624721 0.86962966023 -0.98556580685 -0.72478061268 -1.4757460242 
-2.4704311776 -5.2984223975 -4.6517959178 -5.8536626405 -2.09579469 -3.2783622668 -6.5656753182 -5.8576304399 -6.797407478 
-1.3189107658 -1.1870323377 -0.9452089324 -6.9252870312 -1.8957957036 -1.3685888419 -1.7283633501 0.53668133232 1.7661475097 
0.52546944906 0.79884671232 -0.68232397611 1.8276688122 2.2428581443 1.626715772 0.13363107452 -1.4708965582 -0.15487874109 
-0.66783577407 -2.2664951079 -4.8830281634 -3.1844173788 -1.839484905 -2.5626886745 1.7678059932 -2.4856311033 -2.4253124271 
0.71714875419 -0.94506732587 0.17475087237 -0.42258280235 4.9207784608 -2.9451560174 2.9714848166 3.8170859664 -0.2566987155 
-2.4908709517 1.4575754528 -0.77394006408 5.1979070702 4.3870897684 1.6587122687 2.0084264468 5.2976120948 6.9784834976 
6.488888887 1.5000367579 2.0989346352 2.7095520589 1.1335429455 5.8266877038 0.020447742149 -0.61768626061 0.4844220195 
3.0157563594 -1.9694595545 1.4467706423 3.1840743253 3.266975744 2.1221115178 4.4804170956 2.4962281442 7.2970009162 
4.6581511965 4.3897563628 7.3776250049 7.3096473089 5.5768140631 0.91970431228 0.274647022 0.8810271692 5.8753626748 
4.6201378788 6.3358206163 6.9187656543 2.4529198929 6.4755808679 6.2420233475 3.7657509381 1.8830840515 3.5369929671 
2.4021249767 2.6168554562 5.37463075 4.6163639683 1.6107091611 4.4757087745 4.6531061239 4.919592363 -0.29055175514 
-1.916584009 0.84398335399 0.31279825974 -4.1029736365 -0.8242562951 -2.5105953529 -1.7538464347 -8.4578442129 -1.5901580436 
-2.8811581258 -4.9506837634 -3.988310484 -2.1590188346 0.36744493849 -1.9194039252 -0.97573391664 0.51617450721 -2.3829917122 
0.099801020366 -1.7588022792 -1.8420795115 -2.6752125701 -3.3774586136 -0.84794383187 -2.641585453 -2.5484813099 -3.1073115276 
1.1780517904 -1.2873976745 -1.6237405326 -2.1618181274 -6.6287480907 -0.42493360321 -0.32817652054 -0.010534123298 0.1243476415 
-0.95255799493 2.3397296292 -0.28045866008 0.096301593782 2.3513580773 -0.93896868429 -0.27762540858 2.8173015327 -2.2309311093 
-2.1341648249 -2.5479576093 -2.8458107175 -3.3093768897 -7.3196897796 -8.1874323571 -7.5398803864 -8.226272014 -2.0012206954 
-6.9884363515 -7.556483215 -5.5079534785 -9.29715923 -2.398949061 -7.7727928428 -7.2511157395 -3.8393917583 -7.0987478226 
-6.8549117522 -4.6832667036 -6.1014597575 -6.7076064248 -6.3998960047 -9.3607145322 -5.8449485428 -8.409994179 -9.1152211212 
-7.3055714217 -8.1726359658 -6.8365206003 -6.6786370994 -7.7898009571 -7.0901940397 -5.8241647541 -6.5808061494 -7.6989253634 
-7.0393753948 -7.0109365193 -8.5824220242 -7.6525834631 -7.5431168241 -8.2467435169 -9.4018739334 -8.2230247668 -8.2756137988 
-8.3385829311 -8.5182660912 -8.9118941645 -7.2035662034 -6.8062458458 -9.0212021508 -8.2362524129 -7.6240451654 -8.6559364766 
-8.0024390007 -8.3065388611 -7.8439270746 -8.8386084157 -7.6172048706 -9.4838035811 -9.1302909502 -9.0396650859 -9.7045996998 
-9.9514564386 -9.8337093757 -8.9134894602 -9.9137830489 -9.0495632249 -8.762466929 -9.946791008 -9.2434137365 -9.1799638775 
-9.1104059091 -9.5815671799 -8.4530354015 -9.5453782762 -9.4931832006 -5.7801104881 -7.8600579748 -9.1846720146 -2.4211857394 
-7.5438941284 -6.9426342306 -6.9229269372 -3.0832190019 -9.2033502947 -8.6136781469 -8.8706012224 -8.3345003881 -8.8691382632 
-8.1765109489 -8.4363174959 -8.1886472895 -5.9602020919 -7.3776296621 -4.8120317068 -4.9129953507 -4.7603006665 -8.4322514159 
-3.1487064518 -3.9306015064 -7.6876768974 -8.1784889904 -7.9134543128 -6.0682586237 -9.415264465 -9.526878007 -9.4389692039 
-9.4754086537 -9.3221294038 -9.9271968202 -9.5484579733 -9.7104231043 -9.9606186324 -9.6923373181 -9.7941440412 -9.9693472824 
-9.6033516554 -9.5610917863 -9.613660385 6.9960766101 8.4139378841 5.023300829 2.1303797087 6.1591816304 1.8680714652 
6.3151115392 6.8342448714 2.0529745381 8.0370351996 5.2954892961 7.8244267334 1.9323223622 1.7602462876 7.9194588316 
9.5956969304 6.3164383521 9.0159554003 8.6193790228 4.3870690031 8.1035459867 9.0142108599 9.0902990961 8.7740847342 
8.5061124021 8.4263871116 6.3991834737 6.956427393 6.6686880822 5.7692041615 9.7058938607 7.4941317039 6.9387379672 
5.6008612623 8.8715277641 9.0553258149 9.3168466407 9.1943322826 9.3135037856 9.5437075063 9.8694358427 8.8815421243 
8.6804316001 8.8863351284 8.9175309643 9.0487842063 6.5728084482 6.3066748624 9.0086795012 8.9512689169 8.4974619338 
9.3150436028 9.2030511944 9.6119819359 8.2436733978 8.0337205269 8.330748537 9.07202966 8.8320748656 8.2010504953 
9.8125268085 9.8575430603 9.8537031095 9.7599856949 9.508258493 8.8122389312 9.7822528098 9.476394904 9.8040411586 
9.1132967105 9.4293945389 9.8536999491 8.8732262705 9.8482630804 9.818814141 8.5230735349 6.8935324047 8.3875657444 
8.2458336695 5.1375135995 7.0751870079 9.8532494608 9.4470132799 8.430299126 8.8586643955 8.8195292945 8.3652711713 
8.7858158928 8.3320654192 7.8836072665 9.1686956221 7.1588412285 7.276665406 9.8707514177 8.9864983746 4.1488282403 
8.9092807594 8.1267287296 5.5756105665 8.4460254496 9.1698202364 9.1876288209 9.9927031527 8.6659882194 8.6216389696 
8.3417036432 9.7184838759 8.7771669157 9.7667658987 9.9361978047 9.851569316 9.8888605929 9.8278396596 9.8888427225 
9.767786933 9.8558212367 9.6340681634 9.9387173088 5.2147998485 6.7160318403 7.1817732476 4.1521235316 6.6148678336 
6.6525122428 6.2369025608 6.4965335243 5.7250875168 6.2609954188 6.2868441329 6.1147216362 5.5954980434 9.2445296179 
3.9844823455 -0.22787070625 -0.41271775693 1.4416950982 0.5832371394 -0.07060078193 1.545213303 -2.330296473 -3.7974048957 
-4.384531347 -3.4818238529 -4.9923054731 -5.0231743343 -2.7014126007 -2.6587451485 -4.2530357601 -0.49037389519 -3.9647717257 
-0.14038143604 -0.48665055752 3.2957255492 3.7343162316 -0.39052607948 2.5377836678 0.24807199493 0.32318499309 -0.70321550236 
-5.0120290153 -4.8876525231 -5.278311686 -6.4769361716 -3.7370947608 -5.4203087903 -4.7578579686 -4.7842998255 -5.2878629112 
-2.5484786768 -1.287703781 -3.8953692956 -2.0879683142 -2.1757764378 -5.2349024459 -5.4080203844 -2.9864405982 -5.8145895289 
-5.8122536919 -0.6642303147 -2.6516947702 -2.468318627 -4.0479190635 -1.0998849151 -1.0837379488 -0.8513030678 -2.8515275989 
-4.4428731334 -3.3148688409 -3.7703017713 -1.2140463853 3.2088156308 3.2174684503 2.4463678648 6.438889536 6.2963338193 
3.297366162 1.5938613649 6.8417478276 6.6263007274 7.4632687223 6.2436959715 2.6880741064 3.2249756556 3.5203286163 
1.9512575304 2.5103352476 1.3201045807 0.44366195889 2.9062685033 5.2507483951 6.3620427224 8.5892692536 2.9840166385 
5.3374581194 5.0843129539 4.7622228738 2.0510623173 3.0141674258 2.8584913099 3.5362491361 6.5827768257 2.9264082851 
3.2899642309 3.9105799829 2.5831684442 -0.059783236382 -0.48510731911 -0.46723008827 2.6433558471 0.42749328686 -0.95637116629 
0.53098368846 1.0076431873 2.63604174 2.8401116779 1.9183411666 4.0411760855 -4.7482506008 4.6056196619 2.0313888341 
6.2874722686 6.7431274833 0.3644110535 5.8107145964 6.5971365811 4.6695121028 5.8576286756 4.5209689135 -0.4992147901 
7.9692532317 -0.32632320791 -2.2929298812 -2.4065307968 2.7661780951 3.4348001475 1.1698040063 -0.82822785144 -2.9822668806 
-2.440587337 -1.9118531603 -1.5097285272 -4.3225911628 -4.6715019068 -3.9597176786 -4.009936406 -3.9738492714 -0.40280887772 
-2.9237374506 0.57844336729 -3.0554800202 1.4521408734 0.11098930141 0.24669847929 3.3821194003 -1.324896977 0.93712395074 
-0.2465648786 -2.829829149 -3.8808733329 -3.0343859641 -5.0202990154 -1.7281125874 -3.3317608664 -2.1493983511 -3.7307397759 
-4.2476856015 -2.8394754198 -0.047243851876 -2.7509723735 -1.0073204919 -1.0719175389 -3.6682253545 -4.5231653253 -2.6041055753 
-3.5304237996 -2.75307897 -1.277103209 0.095709036331 -1.9710790038 -2.2583728439 -0.12393514698 -2.7136956979 -2.2670841387 
0.57344571006 -4.6351472517 -4.1582184407 -4.9206303104 -0.12392093925 2.9921940768 0.30061144771 0.66670641532 8.3573193465 
5.326846192 5.1195272704 -2.4194444099 4.1446309823 5.8833478393 4.0191950457 3.3360963981 4.9782875308 1.0016493751 
3.8994126977 1.546819306 -0.1929674977 3.387582448 0.84815987322 2.2834644077 5.3597584507 2.8030171798 7.5600600541 
0.63039387 0.25165688865 7.9609058078 3.7111851689 9.5934225756 0.44956393348 2.7300898643 2.77196781 5.4265428355 
0.95365453228 2.4911833055 1.0666260435 0.34587950471 2.250361886 -0.97672351227 1.8489776436 0.098239883603 -1.1306638612 
0.49042138935 0.98829403951 -1.6870252705 2.733728225 2.7990821683 3.2309298429 
