# vtk DataFile Version 5.1
vtk output
ASCII
DATASET POLYDATA
POINTS 356 float
-0.0803718 -0.0453648 -0.45729 0.200702 0.281821 7.86515 0.138638 7.84017 -0.264692 
0.520429 7.45763 8.03251 7.95418 0.46202 -0.336408 7.8874 0.771554 8.07281 
7.7483 7.41912 0.0401759 7.60396 7.28857 7.84959 -0.713676 -0.444896 0.747402 
-1.33503 -0.859437 2.10373 -1.5944 -0.87265 3.57592 -1.40269 -0.899238 5.00901 
-1.12294 -0.598458 6.26479 -0.462369 -0.17166 7.28218 -0.705337 0.820521 -0.632407 
-0.74227 2.11036 -1.35916 -1.01848 3.58016 -1.33996 -1.06689 5.04793 -1.13404 
-0.752572 6.28576 -0.793084 -0.183373 7.29966 -0.874333 -0.13102 8.01501 0.798253 
-0.426759 7.91489 2.29274 -0.625655 8.24346 3.70888 -0.650137 8.22809 5.00489 
-0.342756 7.99768 6.27035 0.258971 7.63578 7.13577 -0.316854 0.838999 8.22879 
-0.166367 2.19142 8.60498 -0.409256 3.62281 8.55717 -0.391548 5.03356 8.34685 
-0.300756 6.27326 8.22687 0.223267 6.91979 8.21155 8.30642 -0.013549 0.513689 
8.48103 -0.295217 1.9636 8.63573 -0.433836 3.50188 8.5307 -0.390266 5.00115 
8.51155 -0.130609 6.42887 8.31698 0.289609 7.55701 8.14617 1.14428 -0.195358 
8.15194 2.26625 -0.843264 8.17467 3.6006 -0.698627 8.3828 5.09532 -0.600731 
8.44184 6.22673 -0.335821 7.84463 6.87654 -0.164661 7.77908 7.66065 0.970894 
7.95228 8.06346 2.20188 8.09033 8.26645 3.7345 8.02217 8.1899 5.01327 
7.8289 7.89958 6.18963 7.89219 7.70155 7.32659 7.98762 1.31576 7.89232 
8.06685 2.29519 8.31855 8.26094 3.57033 8.22618 8.15865 4.84125 8.24228 
8.16464 6.09937 7.97441 7.69985 6.72652 8.01676 0.93185 -0.302401 -1.17134 
2.38536 -0.735354 -1.03921 3.80699 -0.904644 -1.43874 5.16857 -0.544237 -1.42843 
6.27546 -0.333918 -1.0542 7.3944 -0.0187327 -0.733613 1.11122 -0.00562204 8.52402 
2.46846 -0.334051 8.37181 3.91656 -0.271569 8.45649 5.35615 -0.0909339 8.5743 
6.35296 0.245552 8.46605 7.24986 0.527943 8.12307 0.914962 8.05816 -0.979216 
2.17736 8.40603 -0.978027 3.8634 8.39407 -1.23383 5.21847 8.19421 -1.26404 
6.24682 8.04426 -1.11097 6.96961 7.66914 -0.335632 1.13194 7.47889 8.30993 
2.43759 7.88053 8.28221 3.9128 7.77155 8.49924 5.18612 7.88329 8.61639 
6.26063 7.63918 8.48898 7.07735 7.30377 8.06619 -2.25665 -0.462726 4.30661 
-2.40392 5.41101 1.35439 -1.85476 5.46681 6.82424 -1.44719 -0.00523204 7.06773 
-1.86967 -0.213508 1.16074 -1.29481 2.76579 7.90471 -0.303552 7.09401 7.74479 
-1.31524 7.31993 5.62522 -1.7663 2.74 -0.140977 -1.58477 7.46303 2.95054 
-0.597102 7.0653 0.187558 -2.74302 5.39916 4.35695 -2.91395 2.79901 2.80835 
-2.69222 2.73422 5.73489 -0.425877 0.498967 7.83755 -2.10856 -0.44716 5.78034 
-2.02749 -0.27668 2.84073 -1.04227 0.022826 -0.217253 -1.5144 4.17486 7.48262 
-1.34738 5.36413 7.68351 -1.10659 6.25541 7.1289 -1.86984 6.42434 6.304 
-1.01946 7.25752 6.81007 -2.07228 4.22781 0.171017 -1.56902 5.43456 0.226051 
-1.99088 6.33964 2.33297 -1.75447 6.48074 0.819494 -1.2606 7.40936 1.50402 
-1.50967 7.30774 4.37975 -2.37245 6.41974 3.75987 -2.67872 5.36988 3.01019 
-2.16137 6.37696 5.06199 -2.45412 5.37303 5.56288 -2.76635 4.26263 2.22069 
-2.41588 2.84511 1.17791 -1.61292 0.886908 0.321706 -2.39885 0.612339 2.11545 
-2.50248 0.347619 3.58177 -2.50972 4.23222 6.14395 -2.05167 2.79348 6.89689 
-2.39073 0.256216 5.01604 -1.97858 0.665473 6.29557 -1.21664 0.995507 7.55586 
-2.94212 2.76054 4.31236 -2.86875 4.2342 4.99599 -2.97579 4.23773 3.70026 
9.18291 0.233356 4.2832 9.2814 5.33526 1.55456 9.08585 5.26093 6.74349 
8.47621 0.820205 6.82576 8.89387 0.468697 1.28442 8.41917 2.86684 7.52401 
7.96479 6.73282 7.38587 8.57453 7.13355 5.57943 8.89053 2.87092 0.164832 
8.63921 7.28693 2.93511 8.19564 6.9884 0.496797 9.2286 5.12989 4.29053 
9.36034 2.62874 2.86546 9.33991 2.725 5.66959 8.05809 1.04233 7.59887 
9.0669 0.332315 5.68124 8.79724 0.365048 2.73157 8.4948 0.647687 0.0468212 
8.92277 4.13347 7.39975 8.47944 5.29429 7.49636 8.68446 6.1848 7.17927 
8.78286 6.21294 6.07627 8.38084 7.05955 6.71745 8.97894 4.24595 0.417426 
8.62032 5.3184 0.499607 8.81895 6.24929 2.35475 8.83442 6.30683 1.05384 
8.56305 7.18678 1.62192 8.53053 7.17198 4.35733 9.19288 6.3413 3.67547 
9.33922 5.22976 2.85521 9.1564 6.2789 4.97985 9.4232 5.23863 5.62177 
9.10742 3.89537 2.20993 9.01323 2.77895 1.47431 8.49676 1.3411 0.622382 
8.84537 1.12939 2.07177 8.93616 0.976487 3.53404 9.14281 4.04078 6.14743 
9.06073 2.81867 6.7368 8.92581 0.989778 4.94049 8.78166 1.13928 6.1985 
8.82226 1.41227 7.52557 9.11026 2.4958 4.28859 9.49889 3.97397 4.93315 
9.51485 4.03337 3.59399 3.43777 -2.29088 1.11807 3.55581 -1.89021 6.7757 
8.221 -1.19533 4.31338 7.85337 -0.412225 7.03307 7.91599 -0.74051 1.10751 
5.96081 -0.606145 7.77058 1.08837 -0.599716 7.72625 0.792299 -1.83902 5.51957 
5.91565 -1.39793 -0.368862 0.689252 -2.13514 2.86651 0.831716 -1.10261 -0.259385 
3.60707 -2.80095 4.36847 5.85189 -2.2827 2.84118 6.03169 -1.98725 5.64302 
7.46813 0.293957 7.70655 8.13221 -0.920822 5.75719 8.34281 -1.28271 2.6293 
7.60341 -0.0612425 0.0304979 4.8309 -1.2306 7.68834 3.41858 -1.36607 7.89567 
2.29996 -1.34327 7.22052 2.185 -2.18227 6.14562 0.909921 -1.48623 6.83991 
4.74142 -1.69067 0.0732198 3.43263 -1.76717 -0.186447 2.21309 -2.42508 2.07789 
2.20258 -1.88586 0.525327 0.858039 -1.70834 1.25154 0.845336 -2.05244 4.25813 
2.18219 -2.7264 3.6185 3.49221 -2.79527 2.97475 2.20036 -2.56162 4.89879 
3.55044 -2.56883 5.58509 4.64057 -2.56306 2.20421 5.95334 -1.91544 1.03447 
7.36351 -0.944201 0.115335 7.44117 -1.41327 1.8827 7.51494 -1.51301 3.48344 
4.79979 -2.15476 6.16803 6.00617 -1.64723 6.99656 7.55782 -1.48459 5.07053 
7.52849 -1.04806 6.4191 7.40802 -0.589045 7.77718 5.88055 -2.44051 4.39346 
4.728 -2.52667 4.969 4.66936 -2.68491 3.7401 3.24785 9.3251 1.34196 
3.35035 8.88408 6.86648 7.26264 8.16327 4.32096 7.29093 7.91555 6.71254 
7.46439 8.45323 1.45859 5.74691 8.16238 7.68805 1.21763 7.95179 7.59699 
0.72991 8.80545 5.70576 5.78173 8.45934 0.161871 0.557005 8.95379 2.90844 
0.967169 8.20597 0.329373 3.35878 9.31733 4.37436 5.83533 9.255 2.89271 
5.92287 9.03875 5.7992 7.13518 7.41604 7.47068 7.40199 8.26665 5.68081 
7.51041 8.51637 2.90753 7.46952 7.93892 0.329898 4.60329 8.68387 7.62727 
3.28689 8.53457 7.88207 2.27262 8.57075 7.32606 2.15119 8.84175 6.30369 
0.876742 8.62814 6.83187 4.6267 9.11311 0.317351 3.29953 8.60182 0.162131 
2.01026 9.02345 2.28524 2.06379 8.90583 0.668031 0.685687 8.81431 1.5113 
0.65962 8.72533 4.41754 1.94195 9.38012 3.68844 3.31394 9.62899 2.8619 
1.98794 9.24201 5.02798 3.37163 9.35826 5.7429 4.5981 9.17938 2.15922 
5.84746 9.04532 1.35411 6.82349 8.32964 0.632076 6.86583 8.62764 2.2431 
7.00506 8.87031 3.68922 4.66496 9.20076 6.36583 5.77848 8.68814 6.95583 
7.09241 8.86601 5.06963 6.91728 8.58212 6.2972 6.99167 8.20522 7.53092 
5.83455 9.04227 4.33517 4.69868 9.39019 5.14139 4.60321 9.52065 3.63425 
1.47341 3.26347 -2.75526 6.67674 3.26005 -2.33178 4.52576 7.68484 -1.64762 
6.93743 7.4367 -0.905509 1.57687 7.48616 -1.31339 7.55475 5.66692 -1.184 
7.63006 1.25478 -1.03134 5.79792 0.62437 -2.13849 0.0538089 5.75914 -1.91026 
3.06647 0.688506 -2.42187 0.246394 0.852479 -1.53152 4.39383 3.39186 -3.18467 
3.01265 5.71748 -2.82131 5.62224 5.78069 -2.59108 7.65495 7.36491 -0.502633 
5.67869 7.48282 -1.42555 3.03174 7.72994 -1.62441 0.59505 7.34104 -0.701989 
7.54133 4.49134 -1.76513 7.7233 3.1945 -1.78404 7.1756 2.09339 -1.84296 
6.17087 2.0156 -2.63846 6.70599 0.821204 -1.71195 0.400035 4.47212 -2.18797 
0.107004 3.22359 -2.13101 2.41806 1.92093 -2.78438 0.9103 2.0864 -2.31722 
1.51045 0.732696 -1.99859 4.45755 0.693118 -2.316 3.74741 2.02933 -2.96633 
3.06246 3.38473 -3.18233 4.99685 1.96747 -2.86654 5.64464 3.30769 -3.07533 
2.47707 4.55625 -2.95793 1.30461 5.7996 -2.46786 0.693858 7.05283 -1.44502 
2.20417 7.26063 -2.1679 3.77187 7.38627 -2.36293 6.20026 4.58411 -2.77483 
6.87655 5.81939 -2.05178 5.22166 7.32632 -2.21669 6.34456 7.17088 -1.7099 
7.48918 6.88327 -1.12874 4.47025 5.78438 -2.91518 5.02465 4.56357 -3.09931 
3.82531 4.55767 -3.19732 1.65447 3.26198 9.42249 6.82609 3.4739 9.37129 
4.63971 7.29509 8.81508 6.57956 7.01126 8.24326 1.98856 7.24909 8.62172 
7.42618 5.53843 8.38638 7.42853 1.43917 8.27188 5.66754 1.1246 8.94477 
0.556993 5.55213 8.65353 3.18514 0.766443 9.21625 0.765131 1.02887 8.48163 
4.44061 3.44622 9.55147 3.00068 5.77995 9.48606 5.7174 5.61343 9.04606 
7.45611 7.01766 8.15997 5.65583 7.22363 8.74365 2.93321 7.44804 8.95446 
0.786341 7.16464 8.2976 7.42707 4.49846 8.95323 7.45795 3.23352 8.59277 
7.16186 2.34688 8.95009 6.24365 2.2049 9.147 6.81552 1.16431 8.88505 
0.615346 4.42657 9.24988 0.623657 3.17912 8.95828 2.51751 2.00482 9.24902 
0.978615 2.12178 9.12986 1.81736 0.983901 8.90139 4.55983 0.883314 9.09542 
3.74353 2.09649 9.4271 2.96632 3.30388 9.71218 5.13701 2.15653 9.58039 
5.63734 3.49019 9.46467 2.48251 4.54022 9.34544 1.66717 5.67378 9.2318 
0.937533 6.70976 8.79445 2.45615 6.66943 8.94303 3.82522 6.85449 9.03072 
6.21358 4.56492 9.22835 6.77278 5.70852 9.06851 5.13164 6.78755 9.0424 
6.25523 6.71602 8.8945 7.22541 6.7318 8.47352 4.41209 5.83449 9.3639 
5.10484 4.76437 9.66716 3.7026 4.57887 9.5171 
POLYGONS 709 2124
OFFSETS vtktypeint64
0 3 6 9 12 15 18 21 24 
27 30 33 36 39 42 45 48 51 
54 57 60 63 66 69 72 75 78 
81 84 87 90 93 96 99 102 105 
108 111 114 117 120 123 126 129 132 
135 138 141 144 147 150 153 156 159 
162 165 168 171 174 177 180 183 186 
189 192 195 198 201 204 207 210 213 
216 219 222 225 228 231 234 237 240 
243 246 249 252 255 258 261 264 267 
270 273 276 279 282 285 288 291 294 
297 300 303 306 309 312 315 318 321 
324 327 330 333 336 339 342 345 348 
351 354 357 360 363 366 369 372 375 
378 381 384 387 390 393 396 399 402 
405 408 411 414 417 420 423 426 429 
432 435 438 441 444 447 450 453 456 
459 462 465 468 471 474 477 480 483 
486 489 492 495 498 501 504 507 510 
513 516 519 522 525 528 531 534 537 
540 543 546 549 552 555 558 561 564 
567 570 573 576 579 582 585 588 591 
594 597 600 603 606 609 612 615 618 
621 624 627 630 633 636 639 642 645 
648 651 654 657 660 663 666 669 672 
675 678 681 684 687 690 693 696 699 
[...]
CELL_DATA 708
SCALARS scalars double
LOOKUP_TABLE default
-3.7510522459 -6.1048417689 -3.2932692214 -9.1776156393 -5.7889545048 -8.7249960109 -8.242670029 -5.9692794295 -6.8441553743 
-5.8512806744 -8.5663338831 -5.5668125881 -9.0849872271 -1.4902888102 0.34259223642 -0.5528107524 -0.65523084807 1.1893214806 
1.2014734207 1.1875363023 3.5542999748 2.6046461085 6.2842266547 2.760045802 5.0263154146 7.3658263395 7.4246476478 
8.2872600407 8.3688655868 4.3341264902 4.9619281231 3.2414221094 5.0388136955 -1.4119153843 -2.0709955399 3.417613036 
-0.54161326129 0.55739636486 3.6664778641 4.8317748034 4.3336122134 6.5861045678 5.1599448694 8.3950048343 6.149365238 
5.6507306636 8.7033871172 8.971368491 6.7731016659 1.8958644221 1.5617131365 3.2865535798 6.3022161689 4.6204744794 
6.3613116518 6.858900052 4.4935750287 7.243484182 6.8458604206 5.1266364992 3.1377213072 4.3434330903 6.045498244 
3.7406435164 2.0726306753 3.6476748503 4.1770319435 6.2472016145 6.5193570021 6.3614883568 0.56149317255 -0.93299277158 
-0.2108587594 0.017878653024 -3.7230262157 -3.619195289 -5.037603901 -1.9657469847 -0.50880721139 -5.5950360952 -5.5437264899 
-4.8156654691 -1.0324607578 -1.3026742909 -1.7916989497 -1.8225203736 0.94066615717 -0.25464230719 0.55589659892 0.57881703419 
-2.1514717674 -6.1861097698 -5.6010463626 -0.35975823655 -1.817314003 -5.1238411759 -0.62624992278 -6.8880727362 -5.401857533 
-1.5143748861 -1.6589220136 -1.8163813461 -2.4008384819 -1.6683657562 -1.7250164156 -1.9750356546 0.3472786818 2.4714910385 
2.2902136295 1.9489875947 0.43834736316 2.2407806676 1.8814533814 1.7358012215 1.5118876806 -0.3086228847 -0.30952403188 
0.11409788827 -4.1067529036 2.6630730124 -0.7214648623 -6.6744038149 -2.0667372363 -6.8084281948 -0.4048984364 -2.0809692368 
-3.0897146245 -2.577657979 -6.0262407942 -1.5094012226 -5.6934616744 -3.9189069301 2.4054084893 2.6850554512 -1.186503893 
-2.8496305658 0.89148069656 0.53107169759 3.5996827412 5.2853267061 3.0807467386 3.6948247011 2.6333591594 6.1385422629 
5.7180628026 0.95674547937 0.95930655721 5.4794871727 0.43388372519 6.3162944447 0.022192725747 0.527200336 -3.4103522181 
3.0784001404 0.60401544868 -0.79396394741 3.2405779656 4.3038633151 2.0947470758 4.7397587265 2.8053819593 5.7286909144 
6.5592234492 6.0796915364 6.7386649122 6.0952683642 5.4036928794 1.1435863234 -0.57840876251 -0.016853621583 3.2723144178 
6.6902920547 4.558370874 5.5489645198 3.1321829585 4.2101913015 4.0760282482 4.5343450798 0.70708147303 3.2455119971 
3.6984211784 1.5444751432 4.479841538 4.1384486047 0.447034895 5.6835264956 5.6400245704 5.9672646111 -1.652323157 
-0.46217878939 0.72449778672 -0.32779621395 -2.0338595552 0.065622624943 -0.67968386823 -2.8121982005 3.6254418927 -2.2900506732 
-1.7492030359 -1.267349894 2.8817587037 -1.8949140418 -2.7822830583 -1.8907815116 -0.39959107105 0.54738070548 -2.3561849834 
0.16714099852 -2.8602931593 -2.6810779927 -1.2544438635 2.8926025453 2.2751056828 -0.19282423527 -5.8401134438 -0.75938477865 
-6.3303980822 2.1232124269 -2.402147513 -1.6510768211 3.1872430093 -1.7692851546 -1.8719210314 -1.1797091056 0.42385664555 
-0.96424726546 1.4267289084 -0.98122667435 0.43087649862 1.9826313773 -1.4470147398 -0.31622373532 2.3931239978 -1.8618699279 
-1.9939742814 -2.543695337 -6.6089855527 -6.7069288228 -6.6148170437 -4.9992243999 -5.9927381527 -4.1360048297 -6.8718366282 
-6.5467188854 -2.1449829819 -6.6970820168 -5.8945352794 -2.2904209903 -6.4923510146 -6.9422879649 -2.169737112 -8.8848910885 
-5.1024593277 -6.8255330262 -6.6904410069 -4.4375023892 -6.1745463894 -7.7648224565 -6.8886034585 -8.9927755436 -7.8050978731 
-8.5286347682 -6.7348758598 -4.8975125986 -6.1881409863 -7.9398091407 -8.8827034276 -7.2854252472 -6.6022732659 -6.5177981209 
-5.8814752951 -5.8765713132 -9.2029882933 -7.897377948 -8.046825032 -8.3464101139 -9.3411828205 -9.0917233915 -8.8555556662 
-9.0515528509 -8.5807202459 -7.8749899008 -5.9147766656 -6.1247328269 -7.6162177875 -8.570174942 -7.9426909437 -9.2092519006 
-7.6081053311 -7.5769650241 -7.3347941907 -8.9920140657 -8.4967088229 -9.4182183389 -8.8373747268 -8.9468438998 -9.6118172591 
-9.9862743354 -9.7037529256 -8.9984694842 -9.7840040552 -8.6791541101 -9.4632146964 -9.8454395667 -9.0449638812 -9.0686479671 
-9.0855205674 -9.2010103717 -9.3245417117 -9.356994406 -9.2040194208 -6.3400293462 -6.2154878977 -8.9336494447 -2.7650503463 
-5.0567154961 -6.8405667634 -9.7737431033 -7.1875692799 -9.0353612509 -8.6417651835 -8.658051184 -8.5298976851 -9.4261010427 
-5.6922442392 -8.5453314732 -8.7109966936 -6.6519768218 -6.8079593549 -8.3077293589 -6.3357827361 0.66793464968 -6.3668015827 
-7.3930461649 -0.22036934129 -5.9654539043 -8.7360102418 -8.3319749203 -9.1430615795 -8.7920806332 -8.8804119739 -8.6918385946 
-9.3043381737 -8.6748659787 -9.72095696 -9.4234814357 -9.6080376102 -9.9477595172 -9.6471271854 -9.8610250653 -9.7732035021 
-9.6291068694 -9.2470112481 -9.8370743391 8.7726354302 8.2014695608 7.9484419378 8.6740945244 6.9391522366 9.9485714768 
9.7017642259 8.6972081697 8.0468444917 8.7409649901 4.9750960696 8.3111389644 6.1020941206 5.3653374422 4.6442632674 
9.4547925083 6.6124642506 8.761787112 8.18324219 5.893067646 7.3356655531 9.4919090721 6.8033196279 9.8135052342 
9.6367803091 8.3030366284 5.4251364604 8.5680459648 5.2378612577 8.2174340083 9.3904257164 7.5188033538 7.4890248351 
8.186788017 9.5305989128 9.481247474 8.192128403 8.4064256127 8.7718353304 9.0988677517 9.5299908577 9.8980532575 
7.9431378664 9.9079647394 7.4059700789 7.9675605877 9.3357543724 9.4085823941 7.4664354108 7.2220762253 8.4514094809 
8.5245884327 9.5229256959 9.8799623492 9.5946470035 9.2852200315 8.3209552625 9.5593101121 8.9066480455 9.3554052142 
9.2034065919 9.7761611575 9.1585543535 9.365903633 9.9721060563 9.0243034376 9.1662175871 9.946915892 9.3723710381 
9.1318414286 9.0888165551 9.9128330258 8.1233749729 9.9067534607 9.9581601836 6.4153854645 5.7824597894 8.8719484705 
8.1674677414 8.5678848413 6.912283444 9.1703281923 9.8203746849 8.7922176448 8.4899635081 8.5051053119 9.2373575374 
9.1537524892 7.6349127095 9.002943616 9.2079475703 7.188119832 6.4176371711 6.3381878892 8.4749765352 -0.38218438333 
5.3904218203 9.7497225635 1.6810491139 8.1049749685 9.1333177756 9.3172195481 2.9438093545 9.8980065588 9.6496219969 
9.8982717931 9.6851738088 9.1927616573 9.9886339829 9.8700310406 9.7153483576 9.7843596621 9.5370097428 9.5188058 
9.8997691008 9.4724145364 9.5893617712 9.4156226092 7.298096438 9.1640091632 5.5610292725 3.3035698898 7.2845939826 
5.4541244018 6.6618054199 7.2620624546 6.0665479033 5.8382379972 4.0317481754 3.1482246854 7.1219708179 0.20114481929 
6.9021185417 0.78249217949 1.3198558341 1.446404322 3.1752613147 0.26868579111 -0.78676136834 -0.60750319738 -3.1237196851 
-4.0688697928 -2.9968330502 -5.6261820538 -5.6001363052 -2.8256154794 -2.8493342464 -3.0943741942 -1.7583227453 -2.4675714734 
-3.1691481437 -1.2524283671 3.5031464601 5.1197647395 0.56286516196 0.20525651461 0.97578907441 0.91983748723 -1.9785447008 
-3.9264797415 -3.5984645691 -3.4657548847 -5.9539975312 -4.6024181905 -5.3701469578 -5.3415549667 -5.8588340864 -6.2261176152 
-2.6808315505 -1.4051124064 -2.0972057183 -1.0107050705 -3.9741376178 -5.4938511269 -6.1756197844 -3.2955011329 -5.0111386433 
-5.207221686 -1.5210804111 -1.5781642407 -2.1295005942 -3.770046291 -1.8786292573 -0.36973443701 -2.4213061985 -1.8960923513 
-4.2901016307 -4.0589472266 -4.1452989158 1.2561593331 0.86371699937 2.0039143474 0.40212974742 2.081843476 4.3331474539 
3.2182795785 9.3323724261 7.201924505 6.8883952049 8.4111738599 8.2141563922 3.0251906435 4.7150138531 4.3118383644 
-0.52211895441 3.1192650333 2.6948121478 1.3138106277 3.1580497117 5.4805730687 4.9139032286 8.9945927661 0.69639379223 
7.5549860166 6.855995491 2.3999084605 1.2468195257 0.70242194418 3.5929047499 3.9068675435 8.8568678144 2.9044649624 
2.9566703459 3.659023244 2.6478658413 -0.62167169793 0.24780939001 1.1133343858 1.9286744447 -0.11680857311 0.53126306656 
1.0066743807 0.28821128908 2.6029488579 2.5932059885 1.8372811362 5.7181579677 6.3908747641 3.9925526839 3.0894503866 
3.6416533892 4.1552617566 -1.4629549602 4.6954472263 8.3424336177 4.7884214549 5.4955977577 5.4557209289 4.5536421904 
3.9698149785 4.2352755022 -1.6773031471 -2.2918744572 1.9242713416 4.0552834466 0.028656297291 0.45927738855 -2.7555274614 
-2.5070389289 -2.135483819 -1.1929767866 -4.3974386172 -5.4709411259 -1.8763738997 -2.4724786261 -3.85543453 -0.047370969568 
-4.1705146078 1.3491362834 1.5889170132 1.1604441229 0.29617775369 -2.1232505189 3.9391019146 1.2326484439 -2.0816716595 
-1.9687691016 -1.5752534879 -4.2605662083 -2.6233566872 -6.0003984057 -0.86698212994 -5.9687432623 -1.7338354778 -3.6608274874 
-4.703591123 -4.0818021136 0.098417874554 0.077737537745 -0.32487686342 -2.4502374259 -3.3177518554 -3.3429121362 -0.9927202872 
-5.3054285075 -4.7905875217 -2.6714857044 -1.5320895464 -2.9798963326 -3.5135132677 0.60135168735 -2.0633299747 -0.56801459924 
-0.35896857064 -4.3064937678 -1.9757943257 -3.1858787632 0.96657533391 3.9758949439 -0.34278552956 0.6057234151 4.2027518954 
5.5380270249 4.6334556477 6.2364919691 3.6894909643 5.040916754 0.26720747449 4.3569296916 4.1717597537 0.45387388349 
3.3754571387 2.507789769 1.5508991524 3.3201672344 0.27435037476 0.70222345439 3.4217468713 2.2054501204 4.3495697891 
0.16234142435 6.0393823518 8.52615376 3.0670275351 2.2227576583 0.73015203255 1.5272224337 3.3934858038 4.1949485788 
1.3038423712 3.4477927387 3.1445472755 3.3679711003 1.7324043492 -1.2528843644 0.065176251404 -0.54747201579 0.94471530834 
1.9842917012 2.2972355177 -0.36048902346 0.74273044751 4.2590394982 1.9186630056 
