# vtk DataFile Version 5.1
vtk output
ASCII
DATASET POLYDATA
POINTS 356 float
-0.239139 -0.103973 -0.611514 0.0993279 0.124556 7.99166 0.139366 7.71573 -0.405138 
0.623326 7.19505 7.75753 7.79368 0.48957 -0.254972 7.65934 0.762628 7.84141 
7.71934 7.47027 -0.0389647 7.49852 7.16315 7.66909 -0.961169 -0.7095 0.549745 
-1.54727 -0.962004 2.03368 -1.78013 -1.06477 3.4945 -1.57699 -0.904393 4.89314 
-1.18792 -0.702265 6.26169 -0.564478 -0.394233 7.29581 -0.957465 0.691079 -0.846987 
-0.636591 2.03274 -1.48893 -0.99721 3.48768 -1.44267 -0.992165 5.01588 -1.03992 
-0.830928 6.18035 -0.728688 -0.227326 7.21688 -0.876197 -0.17472 8.01529 0.752341 
-0.590016 7.99308 2.17829 -0.681706 8.11269 3.67124 -0.576256 8.05977 4.99817 
-0.249929 7.88442 6.12962 0.114493 7.66033 7.18289 -0.199251 0.940667 7.81616 
-0.162386 2.06302 8.39006 -0.481887 3.43311 8.35648 -0.463527 4.88045 8.33963 
-0.290895 6.06147 8.03168 0.371064 6.66233 7.93639 8.04666 0.0681073 0.630786 
8.33222 -0.248899 1.8735 8.44884 -0.478381 3.43248 8.55067 -0.38969 4.92733 
8.26152 -0.0402613 6.25916 7.78682 0.505087 7.14747 7.99746 1.11288 -0.238193 
8.08468 2.1136 -0.964624 8.13944 3.58439 -0.807896 8.33884 4.95123 -0.708624 
8.25869 6.11735 -0.339297 7.74596 6.83059 -0.256878 7.9038 7.7498 0.86297 
7.71145 7.97463 2.16902 8.01729 8.07842 3.6107 7.88082 8.13674 5.00605 
7.80136 7.8366 6.11726 7.57516 7.48981 7.10477 7.82614 1.38351 7.74075 
7.84698 2.29545 8.0831 7.97455 3.58042 7.98805 8.05647 4.91211 8.08809 
7.99765 5.90784 7.82396 7.67563 6.59752 7.86101 0.85095 -0.371235 -1.23269 
2.2261 -0.9393 -1.17016 3.82352 -0.890376 -1.3415 5.03633 -0.60336 -1.48424 
6.23411 -0.542662 -1.3389 7.14029 0.0626982 -0.652757 1.22201 0.267104 8.09056 
2.27182 -0.420107 8.36269 3.94533 -0.299111 8.47327 5.20894 -0.117551 8.37041 
6.3599 0.0978761 8.3702 7.08724 0.623749 7.95319 0.934384 7.86614 -1.01178 
2.0466 8.31876 -1.03483 3.80028 8.41808 -1.36914 5.09562 8.17082 -1.30552 
6.2011 7.90448 -1.05015 7.20494 7.7719 -0.574015 1.20954 7.25825 8.15926 
2.24335 7.58973 8.17468 3.73336 7.74539 8.36117 5.16251 7.61017 8.39532 
6.1201 7.33549 8.21583 7.01852 7.38796 7.92235 -2.18016 -0.385531 4.21985 
-2.38453 5.42032 1.31538 -1.76788 5.29035 6.6897 -1.27316 0.134903 6.94595 
-1.64856 -0.0194178 1.23822 -1.37429 2.71219 7.85667 -0.373564 7.02467 7.65009 
-1.34854 7.1733 5.60684 -1.83352 2.73943 -0.287775 -1.49011 7.2285 2.96749 
-0.675488 7.01579 0.105342 -2.7839 5.37084 4.32722 -2.88952 2.73437 2.70071 
-2.68332 2.71067 5.65577 -0.533355 0.389483 7.71378 -1.81255 -0.305081 5.56749 
-2.08482 -0.368506 2.79574 -0.88159 0.0768951 -0.180174 -1.54476 4.1961 7.50376 
-1.39785 5.39356 7.76759 -1.16104 6.21737 7.1254 -1.96773 6.39606 6.21647 
-0.934069 7.06034 6.65266 -2.12117 4.16534 0.145158 -1.90312 5.47042 -0.0580963 
-2.29395 6.32143 2.24982 -1.614 6.27292 0.820831 -1.37484 7.28024 1.46264 
-1.69366 7.35366 4.36824 -2.46844 6.33264 3.67371 -2.73535 5.22183 2.95085 
-2.11633 6.34254 4.97863 -2.5063 5.31962 5.51502 -3.01643 4.15138 2.13962 
-2.50662 2.75051 1.13318 -1.78797 0.791374 0.191605 -2.4563 0.524912 2.01505 
-2.56862 0.246288 3.57527 -2.56295 4.15546 6.14404 -1.94583 2.74775 6.68568 
-2.4181 0.187581 4.95589 -2.01259 0.463101 6.2644 -1.2742 0.938873 7.57756 
-3.0829 2.62393 4.23771 -2.88212 4.17629 4.886 -3.07937 4.13537 3.66985 
8.91357 0.283776 4.22468 9.08603 5.18594 1.47007 8.92198 5.15896 6.63931 
8.47994 0.688288 6.79586 8.58216 0.583567 1.19318 8.7222 2.83012 7.60605 
7.88924 6.59936 7.27933 8.27217 6.86616 5.4043 8.58953 2.74638 0.11571 
8.54267 7.22096 2.91844 8.01397 6.85967 0.44312 9.21895 5.09402 4.28919 
9.31156 2.6056 2.71502 9.28047 2.62855 5.6465 8.23196 0.881873 7.80305 
8.95955 0.36677 5.60783 9.09227 0.190171 2.66586 8.58557 0.624534 -0.0546535 
8.67548 4.15107 7.3843 8.36631 5.16931 7.29121 8.5204 6.06222 7.04885 
8.74751 6.13245 6.03081 8.25044 6.97577 6.62713 8.88514 4.10555 0.535819 
8.43892 5.24554 0.47543 8.71004 6.16281 2.28182 8.6764 6.19005 0.952169 
8.4313 7.03915 1.53594 8.45675 7.06674 4.32804 9.05761 6.23519 3.57658 
9.28103 5.21316 2.80652 9.00705 6.18449 4.86376 9.0206 5.13964 5.44389 
9.06194 3.96398 2.22398 9.06697 2.70251 1.32957 8.62492 1.30174 0.520742 
8.79185 1.02914 2.04909 8.82568 0.942909 3.41637 9.0681 4.05063 6.10754 
8.81069 2.72742 6.51931 8.82581 1.02428 4.86467 8.66775 1.12273 6.12205 
8.45694 1.36808 7.24297 9.08367 2.45101 4.24453 9.19353 3.8039 4.90667 
9.36924 3.98588 3.51031 3.32324 -2.42127 1.08462 3.49055 -2.14789 6.80552 
8.31347 -1.39153 4.22258 7.94416 -0.468039 7.08952 7.96169 -0.890233 0.995088 
5.89794 -0.583243 7.71056 0.941217 -0.719798 7.7672 0.754721 -1.97966 5.51692 
5.73166 -1.15568 -0.23636 0.670082 -2.17494 2.76601 0.8265 -1.17686 -0.251231 
3.49976 -2.92224 4.24901 5.81515 -2.3882 2.79603 5.98348 -2.24462 5.65542 
7.66272 0.164404 7.92381 8.11859 -0.976166 5.72226 8.147 -1.33301 2.59623 
7.81949 -0.24386 -0.262832 4.7311 -1.38953 7.48944 3.388 -1.21324 7.7145 
2.23854 -1.43671 7.26917 2.11166 -2.29728 6.10019 0.948126 -1.46472 6.70349 
4.6996 -1.8562 -0.0546967 3.37333 -1.80695 -0.252436 2.0951 -2.56925 1.99357 
2.14727 -1.96779 0.525549 0.778398 -1.73069 1.27586 0.619824 -2.29739 4.27241 
2.12579 -2.77204 3.5167 3.40764 -2.8493 2.86624 2.14089 -2.72561 4.80436 
3.48932 -2.68845 5.42669 4.57007 -2.49614 2.15444 5.95079 -1.95953 0.946809 
7.25562 -1.03651 0.107941 7.30392 -1.36345 1.82799 7.40538 -1.60744 3.44073 
4.7032 -2.26111 6.04022 5.98947 -1.56794 6.96374 7.49387 -1.45279 4.98577 
7.42811 -1.03871 6.36343 7.09924 -0.347347 7.48336 5.8538 -2.37354 4.28832 
4.73907 -2.83787 4.92291 4.60913 -2.79779 3.63473 3.22754 9.27936 1.26421 
3.35786 8.54 6.72061 7.22858 8.121 4.1994 7.20688 7.74768 6.61402 
7.28868 8.13123 1.21622 5.64409 8.20552 7.78646 1.09641 7.94819 7.60887 
0.722237 8.67204 5.65834 5.71933 8.54356 0.0370109 0.505899 8.83467 2.82095 
0.897322 8.11028 0.169721 3.22069 9.19427 4.37834 5.73293 9.14744 2.85624 
5.77618 8.84685 5.68587 7.04286 7.25471 7.3616 7.31757 8.18122 5.59238 
7.3304 8.24519 3.05477 7.10292 7.62062 0.475401 4.50701 8.26734 7.50165 
3.32665 8.26207 7.73168 2.15246 8.42262 7.29527 2.09144 8.79108 6.20669 
1.06923 8.13775 6.66805 4.51681 8.96464 0.434087 3.16675 8.6452 0.0313568 
1.96406 8.93993 2.18968 1.93726 9.00524 0.618305 0.688418 8.70447 1.45021 
0.559516 8.50174 4.29973 1.85641 9.21848 3.60046 3.23164 9.47624 2.81022 
1.87044 8.99657 4.89131 3.29869 9.15519 5.67602 4.54069 9.12855 2.139 
5.68703 8.96435 1.27312 6.78702 8.42712 0.576218 6.92765 8.63918 2.13809 
6.91978 8.94237 3.60605 4.52302 8.93175 6.34174 5.71297 8.29805 6.74442 
7 8.70648 5.00241 6.87729 8.45966 6.19633 6.82676 8.04673 7.33057 
5.70626 8.9976 4.37941 4.50452 9.1065 4.97143 4.50581 9.40917 3.56885 
1.47174 3.17906 -2.83757 6.67002 3.19909 -2.46173 4.40913 7.74872 -1.81323 
6.7257 7.31399 -1.12391 1.47639 7.35951 -1.37641 7.45704 5.57321 -1.22481 
7.64876 1.05323 -1.17451 5.61571 0.752137 -2.18332 0.0296563 5.71101 -1.93073 
3.11192 0.564147 -2.39332 0.1901 0.772122 -1.63284 4.38405 3.2997 -3.25278 
2.98203 5.68213 -2.89851 5.57524 5.66733 -2.66789 7.34698 7.05712 -0.34686 
5.62014 7.45958 -1.51317 2.99339 7.54535 -1.54596 0.503655 7.2243 -0.831413 
7.39793 4.45489 -1.79339 7.57748 3.1455 -1.7969 6.94585 2.10496 -1.79482 
6.07766 1.9896 -2.54257 6.70301 0.762147 -1.82873 0.242742 4.40385 -2.31577 
0.237676 3.15861 -2.12343 2.37463 1.80162 -2.89963 0.842086 1.96744 -2.55263 
1.52552 0.681492 -2.11391 4.42958 0.679652 -2.51634 3.66357 1.95242 -3.08374 
3.05895 3.30058 -3.31648 4.98031 2.02561 -2.97951 5.59275 3.26001 -2.93586 
2.34264 4.42912 -3.1157 1.34272 5.64004 -2.4091 0.584855 6.98488 -1.65263 
2.1796 7.14151 -2.24723 3.70855 7.32053 -2.33966 6.0306 4.52712 -2.77745 
6.79975 5.72817 -2.04361 5.03334 7.21398 -2.2341 6.34085 7.06973 -1.90581 
7.50745 6.91793 -1.16097 4.38161 5.64379 -2.96773 4.89392 4.51146 -3.16627 
3.74727 4.45409 -3.25697 1.59313 3.21606 9.12842 6.58728 3.31851 8.98316 
4.28012 7.1775 8.62491 6.73654 7.0289 8.41557 1.69353 7.1385 8.64837 
7.33841 5.45048 8.27097 7.52503 1.33404 8.37149 5.72634 1.01991 8.71598 
0.368606 5.52959 8.90602 3.10193 0.856238 8.83443 0.592159 1.0192 8.66442 
4.35316 3.3646 9.6214 2.94498 5.61927 9.39431 5.54734 5.62963 9.16306 
7.20688 6.86599 8.04631 5.59437 7.25724 8.85473 3.16586 7.28253 8.77823 
0.600107 7.1343 8.42237 7.34935 4.49713 8.66736 7.46251 3.24041 8.82884 
7.10065 2.21897 8.49347 6.13971 2.22072 9.13182 6.60232 1.23416 8.54687 
0.676619 4.32773 8.99638 0.383586 3.07542 8.94508 2.35216 2.05969 9.2819 
1.13366 2.11287 8.82321 1.82298 0.926178 8.85057 4.42519 0.76139 8.9936 
3.7579 1.97336 9.26636 3.0348 3.25234 9.50946 5.02657 2.08272 9.20613 
5.56527 3.38031 9.29242 2.37472 4.43436 9.50824 1.59001 5.59355 8.99326 
1.07019 6.53521 8.55332 2.31131 6.60702 8.86296 3.73688 6.64503 9.04097 
6.13534 4.54675 9.06044 6.71723 5.6234 8.94574 5.12206 6.7961 8.96875 
6.13139 6.57673 8.59233 7.17042 6.48531 8.43357 4.3099 5.61624 9.30457 
5.01559 4.51318 9.49773 3.74022 4.47851 9.3403 
POLYGONS 709 2124
OFFSETS vtktypeint64
0 3 6 9 12 15 18 21 24 
27 30 33 36 39 42 45 48 51 
54 57 60 63 66 69 72 75 78 
81 84 87 90 93 96 99 102 105 
108 111 114 117 120 123 126 129 132 
135 138 141 144 147 150 153 156 159 
162 165 168 171 174 177 180 183 186 
189 192 195 198 201 204 207 210 213 
216 219 222 225 228 231 234 237 240 
243 246 249 252 255 258 261 264 267 
270 273 276 279 282 285 288 291 294 
297 300 303 306 309 312 315 318 321 
324 327 330 333 336 339 342 345 348 
351 354 357 360 363 366 369 372 375 
378 381 384 387 390 393 396 399 402 
405 408 411 414 417 420 423 426 429 
432 435 438 441 444 447 450 453 456 
459 462 465 468 471 474 477 480 483 
486 489 492 495 498 501 504 507 510 
513 516 519 522 525 528 531 534 537 
540 543 546 549 552 555 558 561 564 
567 570 573 576 579 582 585 588 591 
594 597 600 603 606 609 612 615 618 
621 624 627 630 633 636 639 642 645 
648 651 654 657 660 663 666 669 672 
675 678 681 684 687 690 693 696 699 
[...]
CELL_DATA 708
SCALARS scalars double
LOOKUP_TABLE default
-4.7128842754 -3.9124048125 -5.3631081924 -6.2036339275 -6.0299050208 -6.3591609326 -5.1618555051 -5.0498219193 -5.3298777651 
-4.6782414886 -4.2055375787 -4.9139261971 -5.2668199487 -4.4159234887 0.45475554249 -1.1143815774 -0.79980521126 1.2966653183 
2.8505504003 0.16990585301 1.5719272615 4.5794384754 7.3074357434 5.0969617668 3.8268337346 7.1734667844 7.2042376424 
6.7264421628 7.199751147 3.4835049923 4.4402871241 2.1662013374 6.1446687686 -1.6420105835 -1.7527216115 1.0629982078 
0.12325417399 1.6482501306 0.15365361729 4.8282095144 6.7737245827 4.77700595 4.4382876472 7.1348647866 6.1595353254 
5.9082707302 7.9808458156 7.5111986969 5.4124374475 5.6267341943 6.4840244609 2.8027682515 6.8743853957 4.4962410857 
7.3261138696 7.3416706046 7.0029842966 7.3285346347 8.2248222631 2.7171523551 2.7192256506 3.0407187114 6.514514257 
4.4673755723 0.75266858398 3.9666712938 4.4118033732 5.1597618751 6.650546005 4.8787925561 1.8596898602 -0.5239851828 
-1.7869787284 -0.37585336083 -1.0715500025 -6.480430404 -5.1395669781 -1.6161959079 -5.9006432143 -5.1383895624 -5.1583647974 
-4.8786746443 -5.8215822319 -1.1564619425 -1.2529190485 -1.6359709828 2.6777360646 -1.2915722626 0.010896869565 -1.1782894358 
-1.8797308042 -5.976427 -4.9475820824 -5.2092810307 -1.6308240203 -4.0678394064 -4.3765715355 0.5924586436 -0.49967323966 
-1.1853919026 -0.83711596211 -0.68527169065 -4.6446467335 -1.7611903806 -1.7334312406 -2.3577157657 -0.023377037303 3.1489062542 
1.8666023109 1.7861385812 -1.0559710874 2.6346622818 3.5847788353 2.7961554863 1.5197354468 -0.45750189388 0.11524483818 
0.61582904147 -4.6566052507 -9.0258689647 -1.743097053 -6.5710837823 -1.6715039753 -4.9784678606 -6.0889530153 -2.1486225842 
-7.7348140585 -3.3069337829 -4.984638253 -3.6634450165 -8.3981440499 -2.9621326111 2.7925657644 2.9817913514 0.18661241966 
1.5568652561 1.5992871843 -0.96298492937 3.0769043344 4.7147327875 5.2414198199 3.7072180242 3.8026073463 4.5091305317 
5.9288174129 3.710148184 3.6780465011 3.8684854581 0.44527456768 5.3043211314 0.091850708791 0.12104526666 -0.84247837524 
2.9007157437 -0.46001744125 -0.96222325372 3.5187725785 3.7064478202 2.1769660971 4.881444171 2.8887443295 6.2619812382 
2.8907443567 2.4080068959 6.0410039628 6.6358832938 5.5659586405 0.62619491851 -0.86160072311 1.0249433816 1.6046860423 
5.7800487989 3.4975440853 3.3532554706 3.0302339577 4.5730824826 4.3840740355 4.5338452472 1.7343695942 3.8852262657 
6.4437510263 1.0399494639 2.2208588078 1.3513883377 1.6751685052 6.1537185135 5.1610788198 5.5202649381 -0.8803558721 
-0.87833741878 1.2047662278 0.73298733589 -4.3344452442 -0.57036116545 -4.1856544527 -2.9664643794 4.9466134035 -1.8710354777 
-2.4752199496 3.357286049 -1.8881473764 -2.3635346571 -0.80297618755 -2.2080963684 -0.15592027221 -0.22967466043 0.48074492021 
-0.91630227588 -3.3385296621 -1.9418819181 -3.2351389683 3.011262007 -2.938132618 -5.8797363295 -1.0217778791 1.5082344063 
5.1768761761 -2.0125122432 -1.9537945379 -1.3871762325 1.2367980561 -2.2204170108 -2.3129767199 -1.7376889135 1.223994562 
0.92278835518 0.60381860392 0.94567975984 0.93712815174 0.99887159881 -1.066636271 -0.6262360067 0.42810269707 -1.186538252 
-0.13202208187 -1.3227551601 0.14657684359 0.2899433967 -4.5748256976 -2.9817519987 -5.5350173694 -1.9305771702 1.2192429696 
-6.2281343684 -2.3635165636 -6.7031208877 -1.8449910041 -5.8093246645 0.27067070972 0.36734681069 -3.2918129282 -6.952544273 
-6.528526345 -7.3569903318 -6.1591152209 -6.369145046 -6.0042749525 -7.7407000627 -7.9839940968 -8.2694627064 -7.6843118572 
-8.2391282778 -7.9752104003 -5.5446342858 -7.7258801153 -1.9495329982 -6.9832443353 -7.2306611904 -7.2510735756 -2.9919636088 
-8.8821506116 -8.920264777 -9.0871358579 -7.3359912261 -7.6000834201 -7.7649636828 -9.0961947191 -8.7106558213 -8.8264146088 
-8.6243453123 -8.8735790377 -8.6827416428 -6.7014830452 -6.4958677745 -8.7192987364 -8.7680215564 -8.3425242383 -8.9666029665 
-8.3014324401 -7.545702655 -7.3920263958 -8.463157274 -8.4981889664 -9.3863784759 -8.9735952264 -8.5326685878 -9.715007795 
-9.9537672665 -9.8386551816 -8.9709936052 -9.790489446 -9.2756948847 -9.4376368171 -9.9105023915 -8.9918309687 -9.3667444936 
-9.583569851 -9.4909727902 -7.2525404495 -9.5930191581 -9.5369120285 -3.5323916083 -2.8436061397 -8.5870259645 -5.3876327678 
-5.1611264881 -5.6811158269 -9.7101495966 -8.9266057047 -8.5909436114 -7.9482142645 -8.5344266272 -8.3474545242 -8.7875953665 
-5.7106024516 -8.5405194706 -8.0016271922 -7.020430285 -6.4270252539 -8.9391947703 -7.5716811726 -6.5863135781 -8.2406191698 
1.3561063395 -4.1958162499 -5.6820996938 -7.8954659727 -6.7551695885 -9.8356663286 -8.7809988329 -8.9721973491 -8.8125104468 
-8.767516644 -9.216310991 -9.8018279332 -8.8474989373 -9.6162334356 -9.9514665145 -9.6028475701 -9.6471823523 -9.9518335225 
-9.4668043267 -9.1221137676 -9.337084503 8.0517549729 8.6435299171 8.2776738809 8.9796966934 7.6302257973 9.989238844 
9.1852097662 6.9314138904 9.3075276243 7.4956084316 8.664628232 2.6173371737 9.1651721271 9.5579993765 6.861124899 
9.6276472317 8.0211804059 5.5005342261 7.5566401731 7.098066243 8.2601741944 9.4655973709 9.1504870404 8.0573531148 
8.5802762514 7.6596648101 9.0865935348 4.4240049997 9.1526276624 5.9053517197 9.6344947143 7.150611786 7.0862002098 
4.7291869062 8.7462786616 8.7558582105 8.8824914629 9.1441008778 9.1538273416 9.6057483815 9.7246753362 9.868745414 
7.6706151834 9.7755050102 8.1667311289 8.4051103204 9.2303477022 9.1964373062 8.2709791088 8.2480865563 7.7856063901 
8.8768192139 9.2188232537 9.7524369588 9.0627356426 9.1518528672 8.0789151011 9.6644839375 8.9526898026 9.4264164881 
9.3394533774 9.8093389954 9.3328923213 9.7163481808 9.9070089886 8.602316472 9.6039902196 9.8229237497 9.4395915645 
8.9920464156 8.9788301131 9.794786148 9.2482556626 9.9173664331 9.9291831716 8.7179849775 8.5335799086 9.3933390517 
3.4589080324 7.6285475491 6.2412013045 5.6916132725 7.4770391817 9.3733205746 9.1750453171 9.2299378893 8.6116165421 
8.4113124312 9.9540253093 8.3127811837 9.4772318885 7.6456099279 5.9798274335 6.6858375508 5.6420951365 1.3943617116 
5.1465209708 9.2344931338 2.6242378259 9.8060957282 8.8138444969 9.3875918072 3.55987784 9.7987045602 9.8916320682 
9.7702843382 9.8359230294 8.5231620114 9.9807939278 9.858719914 9.76967004 9.828830666 9.7295558531 9.6907516393 
9.7704808769 9.5990882958 9.8425912167 9.5982718117 6.0872583291 -0.90057563472 7.1638843135 4.6683190145 6.888674588 
6.4237151434 4.7577554104 5.9461853609 3.6414877885 5.5536198828 4.2888620952 4.9762875056 6.7092614353 2.0114947565 
5.8843777489 0.83342487276 1.1665499649 2.7482699246 3.2228053888 0.21175266205 -0.65890840824 -2.7014890621 -0.85322139137 
-3.6548849327 -0.99932389973 -4.2479969422 -4.564012922 -5.8556750309 -5.9242283153 -3.0688859941 -3.3212365037 -0.82174047023 
-3.3894865878 -2.8683921025 2.6894750061 4.2159945088 -1.3067726281 0.98265947626 1.9422958954 -1.2975303402 -1.0758531782 
-4.6530224259 -4.5674188087 -4.2654004418 -6.0583481526 -4.7479954602 -5.8939825885 -5.3241906787 -5.5454189624 -5.5279351728 
-2.8438615466 0.57116106652 -0.038946794933 -0.96603209085 -2.5786187903 -5.2793120464 -4.9761487038 -4.1808183254 -5.9322532458 
-6.1102480829 -1.3830406115 -1.4925571919 -2.1800981558 -3.7524336403 -0.89860933325 -1.3169260447 -1.4692731772 -1.6975801327 
-4.1015438948 -4.2994188042 -3.5794124938 0.40382018118 2.1843594339 3.008548015 2.4126187232 2.6076399032 5.8705720499 
3.6001595925 9.6020096757 7.1165206475 6.4544928446 9.1700848478 8.7787508331 2.5709395113 3.2894881391 2.9558907887 
0.89980360426 2.5465568922 2.5194965301 1.1662104335 3.45157323 5.7296017895 6.1083661251 8.5960537603 0.04186811883 
2.3794227598 8.0784043922 3.1291769908 8.637977612 0.0048234051715 2.3710943482 2.6750295989 6.9229471987 3.3498521432 
3.3737664573 3.8522949847 2.1409847238 -0.24302964921 -0.37136748421 0.064801322575 2.1996163579 0.2286062864 -0.12428077441 
1.1151182194 0.38779535876 2.5649810041 2.6800024473 2.0173424503 4.7582252343 3.7794232853 3.2069363882 8.7242730701 
5.7677887264 4.3677513456 7.4992442976 5.1622021192 7.6096608478 5.7017824849 8.3511453648 4.148176079 4.300960927 
9.8293477695 2.863939918 1.4156395798 1.4519276092 2.5613195812 3.4428772059 -0.48165484932 -0.96547431806 -1.1202229884 
-0.43528475505 -3.9603454498 -2.2846062756 -1.9761504561 -2.4721434709 -6.1259146864 -5.8961917256 -1.7543224954 -3.5114969203 
1.0506213586 -4.2115909457 -1.7318036388 2.7659517638 5.6175239996 -0.055903005411 -0.7025004715 0.16381162898 0.90562899294 
-1.0933658189 -3.5258899764 -0.66811329388 -1.8408180768 -3.2398314661 -6.7983876733 -1.1675889306 -6.0322725072 -4.3612578489 
-3.4273268974 0.1960091953 -2.1732331823 -3.3699022068 -1.1836223556 -3.1651795803 -3.8879889572 -3.14688427 -3.5474908768 
-3.855097805 -4.8651019972 -0.38745331393 -2.2105081195 -1.8707340655 -3.5785416501 -1.711859463 0.11246355718 -0.98533484202 
-2.7436867993 -2.6409778537 -2.875572874 -1.8620761118 -1.1753493986 0.55883509657 2.2470942209 2.1459359456 6.089476855 
4.7634573552 4.0730772752 -3.666983323 5.2437203386 5.2110729281 2.791727699 1.0271903976 3.1264178291 3.8247864484 
2.9469966144 0.54188730599 0.060206448866 2.6447818909 -0.63648546057 2.8758303146 5.5015875306 4.4259236414 -1.0347935363 
-0.34500367647 3.9612266808 1.6230911696 4.1659903515 5.6282062197 0.13593857316 4.3129664014 4.341901492 6.3351977693 
2.0191273882 2.8079743902 2.5964291493 1.0701558616 0.47309522201 -0.4744711975 0.075793743447 0.37242311918 1.9179526763 
-1.3851133842 0.67828418749 1.7737453669 -0.015143359164 2.3800095389 0.93341343803 
