# vtk DataFile Version 5.1
vtk output
ASCII
DATASET POLYDATA
POINTS 356 float
-0.39502 -0.386386 -0.821373 0.0548825 0.00671806 7.82938 -0.0678253 7.55376 -0.481993 
0.576307 6.94086 7.49773 7.59855 0.378969 -0.452642 7.45233 0.785002 7.58311 
7.30631 7.11229 -0.047744 7.12591 6.72963 7.33856 -1.1139 -0.927526 0.370376 
-1.69732 -1.06054 1.86378 -1.75229 -1.06951 3.30791 -1.76276 -1.20069 4.83432 
-1.3425 -0.765685 6.05027 -0.667707 -0.354071 7.05095 -1.00368 0.492101 -1.08711 
-0.864022 1.91116 -1.53454 -1.15944 3.3054 -1.70427 -1.18811 4.8569 -1.35586 
-1.01568 6.02531 -0.942078 -0.318526 6.93463 -0.983873 -0.417982 7.81586 0.598965 
-0.588772 7.66402 2.08647 -0.791312 7.98566 3.51066 -0.76181 7.91981 4.83042 
-0.252949 7.48501 5.97288 0.0457828 7.50819 7.05333 -0.477889 0.834889 7.92309 
-0.149388 2.01978 8.14489 -0.505661 3.44646 8.12916 -0.44743 4.71265 8.11955 
-0.373222 5.80756 7.79221 0.279047 6.50487 7.84794 7.89414 -0.0969294 0.417618 
8.35506 -0.54608 1.71777 8.58338 -0.666392 3.27491 8.62012 -0.591449 4.79488 
8.23826 -0.178491 6.10896 7.6906 0.376174 6.90008 7.97985 0.994659 -0.507546 
7.76474 2.08597 -0.975095 7.85166 3.33522 -0.908826 8.16324 4.87346 -0.678768 
8.09854 5.87741 -0.473518 7.55764 6.65517 -0.369765 7.48973 7.34813 0.916792 
7.52645 7.69446 2.11001 7.69288 7.82724 3.4049 7.78241 7.74743 4.77422 
7.53957 7.58957 5.99591 7.26209 7.09922 6.80034 7.64333 1.24363 7.44609 
7.71483 2.12135 7.99099 7.76952 3.46293 7.86052 7.83653 4.69217 7.87206 
7.68303 5.7146 7.55241 7.49022 6.43297 7.80308 0.755686 -0.668452 -1.43319 
2.17024 -1.08616 -1.41457 3.59154 -1.1486 -1.63911 4.90892 -0.745488 -1.47686 
6.06954 -0.448467 -1.34718 7.0412 -0.0436407 -0.912443 1.05413 0.137421 8.0959 
2.13603 -0.613133 8.09247 3.71537 -0.33258 8.23219 5.06346 -0.236348 8.31313 
6.15842 0.114367 8.28461 6.89573 0.468981 7.72871 0.764672 7.62973 -1.13572 
1.89907 8.1023 -1.13842 3.5682 8.1447 -1.43387 4.93588 8.01107 -1.42184 
6.02044 7.75847 -1.19019 6.91871 7.42757 -0.665772 1.12704 7.06459 7.95936 
2.1253 7.43056 7.95187 3.6725 7.40217 8.12844 4.88898 7.17664 8.06283 
5.85556 7.13139 8.05103 6.60451 6.92743 7.64127 -2.45813 -0.752022 4.08146 
-2.47878 5.18307 1.17694 -1.98632 5.0736 6.45837 -1.35699 0.0870578 6.65678 
-1.93301 -0.288945 1.00787 -1.42229 2.57034 7.64583 -0.311027 6.63094 7.39593 
-1.41465 6.89139 5.43455 -2.2284 2.53862 -0.426925 -1.84129 7.09352 2.81999 
-0.821597 6.73502 -0.065092 -2.97173 5.09312 4.14685 -3.14677 2.53221 2.63104 
-2.87677 2.54031 5.45286 -0.542974 0.277451 7.56687 -2.06556 -0.367304 5.31812 
-2.14425 -0.447194 2.71407 -1.05353 -0.0844237 -0.30962 -1.67864 3.93533 7.29536 
-1.45272 5.15924 7.55902 -1.27161 5.99829 6.92373 -2.0809 6.20022 5.96837 
-1.0191 6.76437 6.54489 -2.30109 4.023 -0.140591 -1.94667 5.15235 -0.202904 
-2.30056 6.05352 2.14707 -2.01708 6.15299 0.60914 -1.58624 7.02261 1.29407 
-1.77252 6.97319 4.21606 -2.5602 6.11337 3.53265 -2.9634 5.12704 2.80262 
-2.37045 6.11358 4.73912 -2.68565 5.12749 5.41323 -3.11784 4.01404 2.03918 
-2.68771 2.60588 1.03484 -2.00734 0.551248 -0.0257915 -2.70639 0.254884 1.81945 
-2.80207 0.0502244 3.37619 -2.81481 3.97705 5.9589 -2.15812 2.60504 6.50339 
-2.52066 0.191078 4.74429 -2.12107 0.370678 6.05106 -1.35889 0.8151 7.30957 
-3.21885 2.62171 4.12851 -3.12231 4.06921 4.71018 -3.17744 3.96835 3.49162 
8.55002 0.212868 4.00633 8.84057 5.1073 1.39282 8.65071 5.05976 6.4088 
8.44711 0.601651 6.67791 8.43722 0.440258 1.02175 8.17116 2.71602 7.25175 
7.5115 6.37774 7.07413 8.05143 6.72619 5.33387 8.59965 2.60998 -0.0275088 
8.36271 6.8957 2.70926 7.77088 6.70108 0.271532 8.79021 4.9857 4.03486 
9.00119 2.41277 2.64474 8.99525 2.53504 5.42411 7.87979 0.875558 7.3126 
8.44002 0.3764 5.44842 8.48296 0.249107 2.56079 7.91601 0.571846 -0.0171928 
8.49416 3.97512 7.12949 7.98362 5.0363 7.0871 8.15076 5.79294 6.81418 
8.20878 5.99998 5.79255 7.88818 6.6533 6.4156 8.59859 4.02692 0.30694 
8.3756 5.07959 0.365123 8.42444 5.9322 2.18518 8.45796 6.04137 0.832011 
8.11976 6.77635 1.55222 8.16182 7.0184 4.13083 8.71682 6.03229 3.41943 
8.99093 4.95769 2.64399 8.70908 5.99139 4.71077 8.86797 5.00297 5.38878 
8.82569 3.74481 1.949 8.72383 2.7162 1.29141 8.2922 1.19052 0.337714 
8.76278 1.00735 1.87093 9.04823 0.801669 3.31899 8.65154 3.85635 5.8665 
8.69098 2.69428 6.39462 8.91908 0.86426 4.68465 8.51545 1.10112 5.88818 
8.16413 1.38765 7.01036 8.90667 2.42698 4.06345 9.10856 3.80424 4.69392 
9.19779 3.82939 3.38284 3.17329 -2.63865 0.899862 3.32438 -2.21242 6.58025 
7.73609 -0.99519 4.06168 7.68218 -0.441469 6.76379 7.6079 -0.886329 0.796913 
5.68782 -0.675333 7.4568 0.962667 -0.864656 7.58029 0.734051 -2.00239 5.32991 
5.73089 -1.42205 -0.485197 0.517158 -2.46029 2.53033 0.656062 -1.31165 -0.405979 
3.30005 -3.0893 4.10276 5.66059 -2.56817 2.64934 5.7628 -2.22901 5.40665 
7.57698 0.133476 7.73259 7.69517 -0.766575 5.54847 7.63806 -0.975827 2.54793 
7.52159 -0.316159 -0.319215 4.57782 -1.39905 7.40148 3.2523 -1.34223 7.49349 
2.08273 -1.63044 6.95089 2.024 -2.52001 5.88247 0.719342 -1.571 6.58916 
4.51524 -2.04344 -0.21837 3.14551 -1.96747 -0.4652 1.99761 -2.82089 1.8787 
1.93718 -2.18294 0.258636 0.644483 -1.96096 1.07879 0.555871 -2.526 4.00689 
1.98602 -2.97366 3.36795 3.37238 -3.05989 2.69469 1.97634 -2.81565 4.68663 
3.43108 -2.75644 5.3 4.3967 -2.77458 1.98615 5.57046 -2.14827 0.816904 
6.87873 -1.00859 0.0171442 7.16843 -1.64232 1.63694 7.38014 -1.79874 3.31112 
4.53997 -2.45295 5.89659 5.80352 -1.73888 6.73442 7.50229 -1.68439 4.86177 
7.26334 -1.18381 6.15499 6.9656 -0.42836 7.37149 5.82385 -2.60649 4.166 
4.52859 -2.87201 4.64862 4.49062 -2.98053 3.42962 3.00385 9.0218 1.15531 
3.14085 8.41245 6.58694 7.07568 7.91448 4.26519 6.97017 7.61576 6.69478 
7.29193 8.15942 1.2338 5.46572 7.79731 7.49794 1.10707 7.43326 7.30172 
0.67038 8.40618 5.53132 5.55152 8.13037 0.00127763 0.379874 8.68838 2.72096 
0.763353 7.9238 0.0806939 3.17303 8.8449 4.14466 5.49293 8.84875 2.67841 
5.54101 8.50017 5.51147 7.09889 7.37629 7.41748 7.04212 7.79381 5.24619 
7.24061 8.23126 2.77979 7.2372 7.56111 0.083739 4.33773 8.17003 7.38876 
3.12943 7.86034 7.48504 2.05462 8.07107 7.10077 1.96405 8.42041 6.00327 
0.863639 8.06543 6.52023 4.32661 8.72875 0.160585 3.01439 8.48844 -0.0796292 
1.73352 8.79918 2.10283 1.8517 8.66599 0.55471 0.546436 8.54557 1.28757 
0.473825 8.32868 4.18983 1.73834 9.13122 3.5678 3.02625 9.17175 2.6628 
1.79551 8.95318 4.80508 3.14441 8.8891 5.56905 4.31533 8.68582 1.96505 
5.46106 8.71031 1.21294 6.51296 8.11133 0.494372 6.63842 8.25978 2.07239 
6.70043 8.5465 3.42082 4.40284 8.55382 6.06819 5.53021 8.23852 6.56197 
6.7431 8.55733 4.84953 6.6536 8.12768 6.00981 6.41785 7.59149 7.06383 
5.6015 8.67711 4.17445 4.3897 9.03306 4.89054 4.42566 9.17105 3.38608 
1.35952 3.00614 -3.02649 6.43289 3.07136 -2.63145 4.24026 7.46384 -1.89118 
6.47314 7.02589 -1.0879 1.33673 7.17161 -1.50505 7.3218 5.44341 -1.43638 
7.43617 1.02156 -1.28355 5.51267 0.499892 -2.41593 -0.0428351 5.46589 -2.1767 
2.9205 0.565242 -2.71725 0.107874 0.571391 -1.81049 4.13794 3.13458 -3.58246 
2.83929 5.40513 -3.07168 5.38499 5.53511 -2.77671 7.17334 6.8871 -0.536373 
5.4039 7.17047 -1.56943 2.75744 7.5279 -1.88911 0.23589 7.1917 -1.0337 
7.30774 4.28379 -1.86406 7.48368 2.97654 -2.00063 6.81238 1.93898 -2.00776 
5.89434 1.8608 -2.84241 6.44496 0.734741 -1.80669 0.175123 4.18413 -2.46657 
-0.00264432 2.89301 -2.51782 2.17852 1.71937 -3.20104 0.759341 1.8273 -2.71808 
1.36501 0.523492 -2.40824 4.33244 0.443088 -2.74329 3.54843 1.81343 -3.2329 
2.90797 3.10423 -3.55593 4.76275 1.89149 -3.18749 5.2485 3.1424 -3.09878 
2.20466 4.18711 -3.29061 1.16201 5.40285 -2.66705 0.433903 6.72631 -1.72285 
1.9445 6.94763 -2.37281 3.52683 7.06934 -2.54092 6.01981 4.33538 -3.06339 
6.48703 5.4652 -2.15001 4.92929 7.04294 -2.41761 6.114 6.88172 -1.97056 
7.25164 6.68284 -1.35138 4.19109 5.46752 -3.06787 4.80508 4.30946 -3.44723 
3.58884 4.31962 -3.47858 1.54982 3.05623 8.96071 6.53857 3.08451 8.82777 
4.19848 7.03269 8.61195 6.3976 6.79256 8.25964 1.65697 6.77422 8.15827 
7.13179 5.33392 8.04255 7.22329 1.31389 8.05793 5.46704 1.08271 8.46954 
0.31712 5.4501 8.67946 3.00476 0.734829 8.76275 0.36918 0.858221 8.53968 
4.29568 3.07004 9.36819 2.85823 5.41758 9.12571 5.45344 5.41987 8.7674 
7.01848 6.77237 7.84577 5.43684 6.86758 8.49337 2.94517 6.9712 8.36133 
0.594441 6.90407 8.18374 6.98281 4.20953 8.41517 7.1925 3.04513 8.32817 
6.80808 2.17554 8.30567 5.98623 2.07568 8.92581 6.53002 1.08852 8.45723 
0.699247 4.23081 8.72403 0.278624 2.93703 8.85419 2.23137 1.76713 9.24324 
1.01554 2.04473 8.72276 1.58589 0.78048 8.69853 4.40815 0.669717 8.80821 
3.62107 1.91244 9.07954 2.904 3.13066 9.16402 4.87504 1.98515 9.08663 
5.44743 3.21155 8.95902 2.1496 4.26005 9.25344 1.52488 5.27707 8.62831 
0.966516 6.25672 8.2496 2.29963 6.50635 8.72525 3.59155 6.32125 8.67073 
5.95007 4.30103 8.96796 6.57939 5.32537 8.74764 4.82519 6.4133 8.71799 
5.86911 6.29359 8.46222 6.73879 6.16795 8.01105 4.2407 5.37359 9.11606 
4.8128 4.33303 9.23133 3.50165 4.23221 9.12467 
POLYGONS 709 2124
OFFSETS vtktypeint64
0 3 6 9 12 15 18 21 24 
27 30 33 36 39 42 45 48 51 
54 57 60 63 66 69 72 75 78 
81 84 87 90 93 96 99 102 105 
108 111 114 117 120 123 126 129 132 
135 138 141 144 147 150 153 156 159 
162 165 168 171 174 177 180 183 186 
189 192 195 198 201 204 207 210 213 
216 219 222 225 228 231 234 237 240 
243 246 249 252 255 258 261 264 267 
270 273 276 279 282 285 288 291 294 
297 300 303 306 309 312 315 318 321 
324 327 330 333 336 339 342 345 348 
351 354 357 360 363 366 369 372 375 
378 381 384 387 390 393 396 399 402 
405 408 411 414 417 420 423 426 429 
432 435 438 441 444 447 450 453 456 
459 462 465 468 471 474 477 480 483 
486 489 492 495 498 501 504 507 510 
513 516 519 522 525 528 531 534 537 
540 543 546 549 552 555 558 561 564 
567 570 573 576 579 582 585 588 591 
594 597 600 603 606 609 612 615 618 
621 624 627 630 633 636 639 642 645 
648 651 654 657 660 663 666 669 672 
675 678 681 684 687 690 693 696 699 
[...]
CELL_DATA 708
SCALARS scalars double
LOOKUP_TABLE default
-5.0879986008 -4.7386962877 -5.0435914096 -5.209411875 -3.9344549396 -8.7421554366 -4.5121867162 -6.6043409715 -5.5635163882 
-5.8335048885 -5.9678384034 -5.0563525424 -4.3747250845 0.048560258472 0.73332900818 -0.88658019094 -0.88989006356 1.1116942125 
2.8930715238 0.32447870646 2.2537533739 5.0178536204 7.7081101379 5.0434612907 7.1646775214 7.9495562583 7.7431852219 
4.3934699772 4.9117143128 4.0604413669 4.4972184729 3.8369593745 5.9039558325 -2.2841024285 -2.1750342466 2.6248425706 
0.79357701047 1.2537151649 2.1601001466 3.5343838475 4.8625682162 6.6022552852 5.1654416217 8.1336962369 5.5385254889 
5.1747737692 8.3303537048 8.7545447253 6.9134683754 2.2422012255 3.7205949672 3.154416548 5.5786519789 5.729198636 
6.2147063526 6.5407468196 4.9283558841 7.2644090042 7.1319208175 4.4573115251 3.7601083156 4.8412261471 7.3162799458 
4.1429818618 1.725358867 4.0990382995 4.4142492147 6.5162009722 6.316981293 6.158200249 2.4615371867 0.11201069274 
-0.92837958619 -0.35650279634 -1.4195806095 -5.9293238627 -5.5030367114 -1.6110064814 -6.3795463454 -6.0805874032 -6.2254164188 
-7.1927399297 -5.2733652054 -0.85518182703 -1.6323861147 -1.1550635418 2.652763139 -1.6368899998 -0.19004866995 -1.085673487 
-2.3407648814 -4.5204341021 -4.4693170695 -3.8099202836 -1.8499540311 -4.7024064275 -5.1270036179 -4.17216014 -4.1909263738 
-1.3244568071 -1.2795654339 -1.2422046754 -2.1633187224 -2.1381018051 -1.4883396552 -2.1798837686 -0.41266149264 3.4054093723 
2.5270675681 2.2371170258 0.03168928379 1.8077207547 3.0679271042 1.6114464816 1.622051593 0.077528959353 -0.35054512482 
0.50075336962 -2.58769358 -6.5664696324 -1.8641068072 -0.12343959733 -2.1365993838 0.60398545984 -6.0886314557 -2.5725906654 
-0.049379830974 -2.2853439518 -3.6603246853 -2.9279287659 -3.2529248309 -4.404528028 3.4553199878 4.185596956 0.17651510008 
-1.2862839002 2.2607464228 -0.45991039376 4.9922659416 4.7115600204 3.0571910462 3.4101684958 7.5083646005 4.0763018383 
4.950805046 4.4566018158 4.5378816304 2.5635703599 0.95959451473 5.3312409996 0.067030839276 -0.17767133439 -3.0730258313 
2.1074363738 1.359980058 -1.0559403033 2.1384696217 4.0676950358 1.8105301407 5.9238922275 3.7401085813 6.5298745012 
5.8171604319 6.0933275086 6.1519360128 6.207530291 5.6516302182 1.2260284392 0.49155360791 1.071770042 6.0950555665 
5.7172048574 3.3552818882 3.6230806227 1.9200595118 5.4701697867 4.8160777959 4.8542273633 1.4995586485 4.0001885002 
4.1803796822 1.1923918295 5.0097016882 3.9666186838 0.74838683773 5.4874590705 4.393520868 4.7913437173 -0.71462534147 
0.23300056467 0.27434163997 -0.094707831873 0.32992926289 -5.164629614 -2.8534627422 -0.55431058642 -4.040428294 -2.6189949326 
-2.8887280426 -5.1788413679 -0.92139120927 -0.49354326834 -2.290151628 -0.80503390394 -0.57337567132 1.5589334928 -1.6587835688 
0.85951772905 -1.9503627603 -1.4554927867 -2.204675626 -3.0810176819 -0.89999207483 -4.31299277 2.4039424175 0.32744548808 
1.1539019069 -0.98597370645 -2.0454922813 -2.0921102687 -5.6951722774 -0.17348436417 0.56624967012 0.44486892042 1.2193025357 
-0.95059772012 2.2905444525 -0.24102354536 -0.035628785789 2.6212082193 -0.62420610818 0.12488866024 2.9600746385 -1.7142115907 
-1.2013379377 -1.7317535281 -1.3278899424 2.2755607305 -6.9499817076 -7.9692464718 -6.6935718046 -9.1996146101 -1.1088027138 
-6.4116654523 -9.0911092599 -6.956025072 -4.8453663556 -7.0913360416 -2.0764190373 -1.7660292859 -2.3502021958 -7.2319371867 
-5.9909367382 -7.6827335839 -6.6309105202 -6.0081485896 -6.1616649786 -7.5375443253 -7.759927216 -8.4204264983 -7.4742573715 
-8.6300879182 -7.0073981177 -6.1947632876 -6.9234388868 -4.1746864045 -7.2255495952 -7.3704746754 -7.3770373957 -4.3734419295 
-6.8916180818 -6.6781081103 -8.9675198662 -7.1264398993 -7.0968107633 -8.2854770956 -9.2124547107 -8.7262865885 -8.4572781664 
-8.7277476551 -8.4845505189 -8.5675264655 -7.3699976622 -7.155623394 -8.7600180953 -8.4017917283 -7.9302542631 -8.9348225584 
-8.0894701773 -7.8951581678 -8.1382714377 -8.5371320428 -8.3610055968 -9.5566778721 -8.487140074 -8.5354360547 -9.7379576614 
-9.96956502 -9.8852700374 -8.6453324665 -9.5839994377 -9.2010186416 -9.6828710005 -9.8156147151 -8.5083248531 -9.4934645208 
-9.6150236366 -9.3886433287 -8.397096011 -9.3495027892 -9.3308457348 -6.363903677 -5.0480189988 -8.8282293784 -6.7111756556 
-7.272944889 -6.594232298 -4.2153545942 -7.4609785274 -8.9035499136 -7.9910282612 -7.9866958765 -8.1083929427 -8.9951603396 
-5.1459617311 -8.1722212038 -8.3461816727 -5.614067764 -6.5151021311 -4.1735023222 -7.6191108354 -6.9958769514 -7.041469792 
2.428481509 -3.7584971127 -5.4267030498 -8.464975446 -6.8885877554 -3.6837309857 -8.8476123439 -9.0044823556 -8.8091823041 
-9.0871112827 -9.1843754171 -9.6355913715 -9.4452032056 -9.5958582569 -9.9652287356 -9.6561272772 -9.7437106421 -9.8697845598 
-9.5280105172 -9.0994937126 -9.7032329434 4.3097902486 0.097439561504 8.502894314 9.7409232856 7.0685938011 9.7887332989 
4.9548762741 8.051493233 6.1382340474 8.1147366104 2.7558006525 7.9145099816 2.5631126111 2.1428581865 6.4534600283 
8.3984346182 7.4707572049 6.5209458523 6.03052372 7.9079750336 6.1224866204 9.3881492477 6.8449859464 9.2805594275 
9.3740184662 7.4050888759 8.5526228261 5.1043272899 7.5877478811 8.2817875238 8.5183698672 7.2819569911 7.9518983757 
7.3582247075 9.4586941978 9.5935512098 9.1359713037 8.8300798201 9.1976139632 9.4928830227 9.6423481185 9.8467397725 
8.084822009 9.8483980839 7.4312986567 8.2994344071 9.3751512929 9.3100425679 7.9355821649 7.2682131423 8.4444602621 
9.1512956003 9.4819534235 9.5920072261 9.0068723802 9.4806967745 7.2269210071 9.5987675901 8.9530474945 9.5601664254 
9.6671877426 9.726319969 9.590154229 8.9280619989 9.9749711563 8.8763177655 8.853560407 9.8073249657 9.0209065805 
8.6870435319 8.6624020119 9.7196865164 8.4982856867 9.9241239842 9.9970124416 8.1750093684 4.1265376168 9.1022750675 
8.3195996274 7.659296149 7.6373546719 9.3241400181 9.9494351297 9.0479742117 8.8510314371 8.9548496706 9.6014565293 
9.5706007009 8.7005466061 9.4871266268 9.2321220569 5.4497324732 7.924433971 4.5813446504 7.1270762349 8.6505347513 
8.2615392307 -0.86992353425 6.0859154042 8.3040867108 9.4806790527 8.1402885141 4.8054530749 9.9087604167 9.7794041463 
9.937968741 9.0411907059 9.0312600546 9.9059064141 9.2222647775 9.4255442412 9.6749405651 9.476180805 9.2824511139 
9.7556483436 9.3742934831 9.2511860604 9.3881686371 6.9053336085 3.172907168 6.4700564562 3.0889413512 7.1413492878 
6.002204278 2.2945441311 7.113823041 7.0148924463 5.7846398615 4.5837837846 5.8074773251 6.7086308685 5.2055808981 
5.7621762001 1.5759807492 1.6140726762 1.8275132455 2.2783772759 -0.50055986115 -0.84575574621 -1.7261463837 -2.9097172964 
-3.8701317646 -3.1430337281 -4.4828412514 -4.4733133984 -4.4819678063 -4.4602032296 -0.85213891214 -2.9912730145 -0.31849608011 
-4.4234770228 -4.8451145264 3.3544495516 4.6133943196 0.85801082827 0.75643618587 1.6986209743 1.0812819753 -0.80113931544 
-4.6740931749 -3.8615340436 -3.5891760934 -5.683806085 -4.5081683929 -5.2430158368 -4.8066482908 -5.7504595255 -5.712889773 
-2.5963019451 -0.69907249084 -2.6724256131 -2.2214848838 -2.0909489723 -6.5471459561 -6.5699378914 -3.8390970024 -5.4894578519 
-6.3204518884 -0.7446464419 -2.4961656751 -2.4542551022 -3.5504743667 -0.89900795318 -0.011540992128 -0.44938129749 -2.7775436985 
-3.5395785378 -3.604870557 -3.0773503253 0.61945183736 1.455297404 2.8479805724 1.506485649 4.1099709168 5.6352343704 
3.4812478977 7.1092831351 7.2370728673 6.9228668672 7.342408392 8.4440197993 2.9097344909 4.2615208636 3.6768949839 
-0.27748078292 4.3136262302 2.6166764754 2.8931277505 3.2000267846 4.8947965923 4.4102736383 9.3568416572 0.87289169087 
4.2243014712 9.1081233958 6.5486951469 8.1605312215 0.88559110054 2.3567684333 2.3647730451 8.1941741597 2.8650542246 
3.0815002401 3.4424794741 3.5838730303 -1.9872426542 -1.2076051512 -1.6631015938 2.5190130403 0.76544499592 0.20840946188 
1.4447421606 0.99464181317 3.429733761 3.9759510104 3.2412834067 3.3097309395 9.3577635136 3.7474597114 8.3824516405 
5.63828207 8.6772652274 8.5338022913 4.4703374985 5.7749097329 5.3284354998 3.827050787 2.6792954484 5.9123984328 
9.6236681315 -2.2939122139 0.50350229029 0.49998549255 3.2620693426 2.3366802766 0.52543092806 -0.37889433871 -2.5601651234 
-0.074645104715 -4.2301647853 -0.43969516929 -1.7904806755 -3.6896267209 -4.7199013654 -4.7962531593 -4.007839674 -2.7350053843 
-1.1647240268 -1.63327677 -1.6435110037 2.4425831374 6.6943616894 1.3014403019 -1.2661775539 0.2776508529 2.6079868653 
-0.074839139729 -4.548404873 -0.79399337688 -2.0850037896 -4.4517520187 -6.1256204876 -4.2190741491 -6.064224919 -4.8347696913 
-4.1621847515 1.0440213286 -1.9659927549 -4.4186122472 -1.7424639681 0.11905919105 -2.213070392 -1.3859050783 -3.2673463431 
-4.7123601 -4.8911070535 1.3299736151 -1.5601048616 -5.0300757554e-05 -4.8133699966 -0.61460897979 0.29211698954 0.37544276858 
-2.4677964002 -3.2356663629 -2.3873708143 -2.0930621948 -0.58093027244 0.52035543176 3.1753777152 3.3986246456 3.0225499125 
3.6032952742 3.8580133933 -2.3612610292 6.3861366209 4.306934765 5.1395042275 6.1100687224 1.5403256365 4.0635491863 
1.5254422676 1.3050010676 1.9061580313 0.99901922673 -0.95066946459 2.0836306054 6.467119286 4.385667322 1.3663591311 
2.774430804 3.7608147183 -1.1058516902 8.0804989508 1.6743890904 3.6595634236 3.1124995602 5.3890663999 1.2207783784 
2.1279394546 4.3650698789 3.8808261418 2.6762447277 -0.59964773731 -0.36722640663 -1.1004961063 0.51087443509 1.1085332977 
-1.6895620399 -0.15705512063 1.4413391961 0.029593713201 2.4593638828 0.63009125415 
