# vtk DataFile Version 5.1
vtk output
ASCII
DATASET POLYDATA
POINTS 356 float
-0.579614 -0.557733 -0.921255 -0.016448 -0.0440235 7.75147 -0.176851 7.47653 -0.584807 
0.412898 7.00265 7.56747 7.52027 0.223027 -0.603022 7.35392 0.630618 7.44746 
7.31373 6.99534 -0.151929 7.09856 6.73733 7.2961 -1.2822 -0.992728 0.202661 
-1.65972 -1.17195 1.71061 -1.89859 -1.2207 3.25046 -1.79788 -1.16162 4.62016 
-1.30328 -0.935543 5.95913 -0.646804 -0.335419 6.80747 -1.22123 0.391006 -1.18963 
-0.985354 1.76298 -1.85062 -1.23503 3.19535 -1.73497 -1.24325 4.68707 -1.44941 
-0.997067 5.7852 -0.982424 -0.469586 6.89826 -1.14857 -0.465538 7.74755 0.549152 
-0.785608 7.68323 2.01102 -0.971115 7.95359 3.48254 -0.800884 7.86493 4.71825 
-0.402707 7.50907 5.87429 0.087934 7.37754 6.93669 -0.372922 0.888157 7.59952 
-0.326606 1.94205 8.24586 -0.502257 3.2309 8.0629 -0.526279 4.57713 7.91494 
-0.414335 5.73569 7.69713 0.194425 6.53417 7.97114 7.95991 -0.237536 0.154307 
8.35784 -0.586473 1.59799 8.54533 -0.66641 3.20384 8.22498 -0.536965 4.69768 
7.94043 -0.158944 5.95586 7.66036 0.306643 6.90733 7.67973 0.920633 -0.656365 
7.86671 2.02228 -1.06617 7.94992 3.33381 -0.992384 7.72523 4.76472 -0.615139 
7.73279 5.76785 -0.448012 7.79418 6.65366 -0.528224 7.47701 7.40143 0.701943 
7.535 7.68588 1.94089 7.58233 7.69066 3.36912 7.37346 7.393 4.65181 
7.25845 7.26368 5.91039 7.19127 7.07023 6.79725 7.39483 1.33612 7.27067 
7.68687 2.1317 7.88204 7.72863 3.40839 7.73597 7.59596 4.59129 7.68013 
7.52262 5.63046 7.56737 7.11736 6.30406 7.38038 0.676057 -0.741298 -1.43792 
2.02557 -1.28986 -1.54457 3.48947 -1.15075 -1.6929 4.85805 -0.95071 -1.67617 
5.99295 -0.546709 -1.44372 6.86 -0.171287 -1.03241 0.989477 0.00646066 7.88672 
2.11376 -0.586902 8.05126 3.65047 -0.320303 7.98898 4.98895 -0.337733 8.22511 
5.98009 0.188033 7.93443 6.83769 0.369481 7.81418 0.674257 7.7136 -1.27224 
1.83351 8.07767 -1.26598 3.49575 8.04821 -1.41012 4.85275 7.7758 -1.35448 
5.84839 7.40562 -1.06474 6.85676 7.43555 -0.621224 1.12769 7.02557 7.95593 
2.08164 7.35268 8.01011 3.57162 7.35687 8.19232 4.82576 7.18416 8.14644 
5.8081 7.00316 8.03055 6.48995 6.72818 7.51148 -2.55643 -0.81723 3.98083 
-2.64576 5.03022 1.02591 -2.09103 5.04566 6.58481 -1.60709 -0.0727501 6.70525 
-1.9043 -0.341661 0.982474 -1.36571 2.52205 7.45667 -0.241377 6.39637 7.17526 
-1.58741 7.04156 5.43893 -2.22745 2.45488 -0.548302 -1.97105 6.98846 2.69888 
-1.07829 6.66822 -0.187999 -3.0848 4.91736 4.02879 -3.19005 2.52865 2.57517 
-2.93164 2.52768 5.32624 -0.744717 0.168557 7.59692 -2.1832 -0.619149 5.40635 
-2.29887 -0.628395 2.51789 -1.24788 -0.135238 -0.426363 -1.66395 3.87225 7.3652 
-1.20445 4.99388 7.31401 -1.43106 6.00827 6.94086 -1.88425 5.84939 5.78894 
-1.09472 6.81427 6.4861 -2.33113 3.77819 -0.220384 -2.13793 5.04596 -0.319053 
-2.50448 5.87617 1.95939 -2.03556 5.96296 0.607659 -1.73034 7.0444 1.21106 
-1.85255 6.85604 4.07377 -2.69572 6.05656 3.4343 -3.17439 4.98735 2.68721 
-2.55583 6.09363 4.72188 -2.83789 5.0549 5.36762 -3.14191 3.84641 1.92474 
-2.83644 2.46269 0.874447 -2.07649 0.503517 0.0352584 -2.64486 0.13728 1.75709 
-2.67688 0.0216723 3.27243 -2.48437 3.86979 5.8074 -2.33085 2.46712 6.57779 
-2.55311 0.116707 4.67875 -2.24879 0.380401 5.93193 -1.41495 0.802595 7.29108 
-3.21494 2.49283 4.00571 -3.09011 3.88788 4.606 -3.35441 3.92448 3.39703 
8.38868 0.202947 3.94733 8.46428 4.8908 1.33945 8.55308 4.84584 6.35521 
8.4257 0.512902 6.59746 8.08728 0.436343 1.04762 7.9907 2.7192 7.10199 
7.55717 6.34248 6.98386 8.01618 6.74108 5.24084 8.11107 2.68308 0.0200275 
8.0131 6.8527 2.75265 7.78607 6.60277 0.325723 8.83054 4.84499 3.99942 
8.89547 2.3557 2.57695 8.80087 2.5401 5.17214 7.72846 0.786087 7.33216 
8.49885 0.231918 5.25951 8.23308 0.263388 2.47557 8.02196 0.528755 -0.30312 
8.38481 3.85971 6.85778 7.95917 4.98869 6.98626 8.04757 5.71217 6.65741 
8.32714 5.80934 5.74338 7.84039 6.54876 6.2787 8.50788 3.93834 0.228092 
8.43561 5.06148 0.217719 8.61354 5.99138 2.04457 8.25559 5.87023 0.787274 
7.92205 6.59824 1.44733 8.13134 6.81866 4.06141 8.42914 5.88523 3.37029 
8.8328 4.97814 2.59878 8.6612 5.97499 4.60167 8.65097 4.85634 5.18 
8.98711 3.76229 1.93292 8.64691 2.45161 1.13747 8.31606 1.1473 0.22414 
8.69372 0.982965 1.77935 8.78342 0.823525 3.24773 8.65511 3.78186 5.74296 
8.62071 2.44437 6.37766 8.758 0.826761 4.63337 8.40907 1.0866 5.79835 
8.08512 1.34382 6.93828 8.84907 2.50054 4.04137 9.06605 3.70218 4.57664 
8.86389 3.67112 3.26123 3.1126 -2.74623 0.815147 3.20507 -2.28706 6.48507 
7.85345 -1.20891 4.01097 7.52687 -0.475958 6.57965 7.40486 -0.847318 0.886515 
5.7011 -0.762605 7.40862 0.792567 -0.941022 7.48203 0.56098 -2.25167 5.15158 
5.54409 -1.47989 -0.497586 0.42458 -2.47688 2.46534 0.620709 -1.43222 -0.451442 
3.29556 -3.22349 3.94274 5.55462 -2.62352 2.58353 5.62792 -2.31301 5.36803 
7.24877 0.18679 7.47367 7.68615 -0.988951 5.42161 7.69692 -1.13183 2.43521 
7.08463 -0.217209 -0.259224 4.53321 -1.43276 7.27276 3.22189 -1.44444 7.46139 
2.08736 -1.61375 6.86583 1.89264 -2.56536 5.8461 0.651456 -1.7353 6.48143 
4.3475 -2.21841 -0.396564 3.06218 -1.97619 -0.512222 1.90046 -2.83801 1.77664 
1.87454 -2.3503 0.167045 0.6062 -2.10151 0.893319 0.577414 -2.55377 3.85259 
1.88771 -3.09266 3.26199 3.21881 -3.16307 2.56536 1.90769 -2.97056 4.59701 
3.32111 -2.82513 5.19193 4.33713 -2.8366 1.83238 5.55601 -2.23641 0.766383 
6.93034 -1.27994 -0.131633 7.13092 -1.72047 1.57534 7.38218 -1.87208 3.24487 
4.44384 -2.45093 5.7727 5.8236 -1.61684 6.62733 7.37975 -1.64072 4.79958 
7.06588 -1.09719 5.98041 6.96677 -0.516363 7.1912 5.62519 -2.62158 4.03117 
4.4437 -2.85693 4.5863 4.36259 -3.06167 3.32749 2.91701 8.95069 1.16216 
3.07377 8.44809 6.52756 7.1635 8.13098 4.09025 6.81604 7.40269 6.34703 
6.89233 7.71623 1.16768 5.39694 7.57759 7.31855 1.09257 7.3768 7.1608 
0.540643 8.38872 5.48675 5.49815 8.30917 -0.194823 0.330245 8.62221 2.64075 
0.708196 7.80767 0.0317575 3.0782 8.88426 4.07647 5.41652 8.61855 2.69405 
5.51076 8.5122 5.44979 6.65456 6.93749 7.18873 7.12936 7.93495 5.25975 
6.90056 7.74658 2.68943 7.03862 7.53304 0.245919 4.24486 8.06296 7.29686 
3.03679 7.83896 7.36796 2.02269 7.98552 7.01525 1.90474 8.34299 5.87555 
0.781405 8.00731 6.45571 4.20504 8.65549 0.074291 2.96481 8.36644 -0.0490412 
1.74142 8.66917 1.99746 1.75885 8.61638 0.469099 0.466497 8.52267 1.21685 
0.425996 8.39693 4.08822 1.65518 9.00303 3.47517 2.95968 9.02839 2.64667 
1.73523 8.9654 4.74951 3.08043 8.8075 5.49242 4.27205 8.88485 1.86939 
5.38077 8.54323 1.14092 6.41908 7.95321 0.471705 6.60315 8.34978 1.95172 
6.53419 8.38831 3.33896 4.36212 8.34383 5.93621 5.38608 8.07207 6.49669 
6.44748 8.12521 4.75551 6.46213 7.84704 5.9458 6.39094 7.55434 7.02512 
5.54379 8.72693 4.1014 4.29684 8.86049 4.7812 4.30827 9.08026 3.3584 
1.27447 2.92845 -3.17454 6.47369 3.01001 -2.7733 4.1927 7.5406 -2.05918 
6.46256 7.06393 -1.28943 1.22149 7.07155 -1.5447 7.39939 5.34006 -1.64677 
7.10036 1.02571 -1.19964 5.30755 0.44501 -2.50678 -0.266982 5.49934 -2.28044 
2.77028 0.407277 -2.86644 0.126298 0.487657 -1.81231 4.07131 3.02783 -3.66932 
2.77408 5.28559 -3.14769 5.35695 5.50833 -2.91668 7.13768 6.9039 -0.546585 
5.51044 7.39555 -1.92429 2.69634 7.54932 -1.95702 0.222768 7.0642 -1.15368 
7.20303 4.15549 -1.94247 7.16038 2.98118 -1.77785 6.92886 1.88176 -2.20599 
5.75772 1.83766 -2.83456 6.48727 0.627958 -2.05125 0.0073293 4.16851 -2.7525 
-0.0777107 2.83605 -2.57485 2.14862 1.63637 -3.14835 0.656471 1.62812 -2.77815 
1.27494 0.419335 -2.55753 4.22356 0.363243 -2.76398 3.43238 1.66256 -3.44202 
2.85333 2.95142 -3.57893 4.63349 1.8277 -3.27209 5.27267 3.06521 -3.40529 
2.09631 4.09877 -3.50725 1.14256 5.28859 -2.65359 0.386659 6.67574 -1.8845 
1.94552 6.89563 -2.43869 3.45712 6.95718 -2.50711 5.73142 4.29735 -3.07147 
6.45634 5.45959 -2.15357 4.80809 6.79519 -2.23914 6.01506 6.62214 -1.86536 
6.99767 6.52112 -1.11704 4.1837 5.52013 -3.34816 4.59379 4.14328 -3.39233 
3.45024 4.14777 -3.72747 1.41498 2.97034 8.75119 6.41983 3.14965 8.7087 
4.16257 6.77174 8.20679 6.24338 6.50752 7.90158 1.55291 6.642 8.19544 
6.96962 5.07697 7.97619 7.04953 1.29066 7.78093 5.43392 0.921748 8.67752 
0.265217 5.23412 8.3397 2.89453 0.72455 8.7108 0.384446 0.795487 8.35789 
4.1417 3.06505 9.14008 2.77515 5.17483 8.9003 5.28562 5.13205 8.7197 
7.07102 6.62303 7.91491 5.27896 6.66076 8.35193 2.87135 6.80883 8.27035 
0.720713 6.6459 7.95134 6.90134 4.14331 8.5259 6.98988 2.95856 8.0681 
6.78567 2.071 8.5152 5.80921 2.044 8.64187 6.48331 1.02428 8.40362 
0.641541 3.93936 8.56677 0.271888 2.75155 8.77646 2.29871 1.77172 8.99821 
1.01901 1.8674 8.61037 1.57518 0.738223 8.51532 4.27963 0.739875 8.8501 
3.59051 1.89592 8.97278 2.79702 2.98046 9.16423 4.76611 1.94037 9.09181 
5.35698 3.13305 9.00808 2.1064 4.10748 9.12991 1.4854 5.20402 8.58899 
0.969442 6.22132 8.27764 2.22542 6.32994 8.6362 3.50551 6.33428 8.6268 
5.74043 4.16397 8.75828 6.31936 5.33041 8.43244 4.70422 6.34837 8.64851 
5.7605 6.15944 8.45537 6.73458 6.00788 7.96168 4.19431 5.20177 8.86057 
4.69083 4.22176 9.16106 3.49482 4.27118 9.03353 
POLYGONS 709 2124
OFFSETS vtktypeint64
0 3 6 9 12 15 18 21 24 
27 30 33 36 39 42 45 48 51 
54 57 60 63 66 69 72 75 78 
81 84 87 90 93 96 99 102 105 
108 111 114 117 120 123 126 129 132 
135 138 141 144 147 150 153 156 159 
162 165 168 171 174 177 180 183 186 
189 192 195 198 201 204 207 210 213 
216 219 222 225 228 231 234 237 240 
243 246 249 252 255 258 261 264 267 
270 273 276 279 282 285 288 291 294 
297 300 303 306 309 312 315 318 321 
324 327 330 333 336 339 342 345 348 
351 354 357 360 363 366 369 372 375 
378 381 384 387 390 393 396 399 402 
405 408 411 414 417 420 423 426 429 
432 435 438 441 444 447 450 453 456 
459 462 465 468 471 474 477 480 483 
486 489 492 495 498 501 504 507 510 
513 516 519 522 525 528 531 534 537 
540 543 546 549 552 555 558 561 564 
567 570 573 576 579 582 585 588 591 
594 597 600 603 606 609 612 615 618 
621 624 627 630 633 636 639 642 645 
648 651 654 657 660 663 666 669 672 
[...]
CELL_DATA 708
SCALARS scalars double
LOOKUP_TABLE default
-5.0673108119 -8.1173376999 -4.0681499068 -8.1058206204 -4.330080016 -8.839042877 -6.8236496167 -5.3101253679 -6.6405491095 
-5.4886367765 -4.798042824 -4.2289396818 -4.0659729348 -5.0490464321 2.8000226251 2.6000391754 0.33495720658 -0.62110011535 
2.0446082009 0.87611721217 4.7708057212 5.6493040808 3.3931736019 4.9274174778 6.0323557683 7.9909627923 7.961832983 
3.8209433113 3.5532524052 4.8772697747 1.4335678196 6.3585495252 1.7418649365 -0.75365096835 -2.3869628956 1.1448390547 
0.88238525321 1.1257216802 0.68369703029 4.3990700692 4.9340788751 4.737482597 4.0105631756 7.8187129003 6.5420253687 
6.262103307 8.5437315303 8.4764753348 4.0906846932 4.1555838592 5.7116182471 4.1718277833 6.4387419754 3.2715419375 
7.0850577476 7.9154602637 5.1658044944 6.6188263362 6.6660928659 4.3407939142 3.5966701979 4.9975157715 3.5075190005 
3.3800419527 5.9512850017 5.1549443813 3.6374212114 6.9739011023 6.6962451088 7.0260935483 1.1965804338 0.25503842381 
-0.63395439855 0.63218408258 -1.2892663498 -5.8623132564 -4.7479370356 -2.1018343756 -5.8508912673 -5.801797597 -4.7373141288 
-4.5484600203 -5.6022134571 -1.5396711087 -1.8530044384 -2.0675066403 -0.1211871633 1.4096079857 -0.97306037043 1.5700243592 
-2.2049807043 -5.0480265466 -5.4851613175 -2.0443116223 -0.57191481079 -6.1845304401 -1.9489901757 0.90220835587 1.473684876 
-0.52038521935 -1.6517417872 -2.0411327872 -0.65113202614 -2.0653974096 -2.0640736366 -2.4023828114 1.3409315433 -0.60254285345 
1.0061399619 -0.99424349923 -0.33466268512 2.1580703932 1.7024169316 0.69552954945 1.2582462735 -1.0533087696 -0.027985016508 
-0.044213495304 -1.9562386299 -6.259363234 -2.4221708582 -5.2353849819 -3.6586945609 -0.033869184622 -7.6726981803 -1.2021416042 
2.4521028044 -1.0385299846 1.2872266308 -2.286790088 -4.3072002422 -6.4834261 2.037805016 2.3780198812 0.1204525456 
-1.7297715718 1.1561994158 1.1577619103 3.9758302037 3.9842968054 4.1598750513 3.576483927 1.7201286173 6.8461984072 
6.7869261423 4.9000203034 4.907487524 5.1351765976 2.0379819389 3.6299586563 1.2474594789 -0.51561295398 0.91810599912 
0.64060337625 -2.4146857553 2.6236870773 0.42361287037 0.47842242815 6.5750136408 4.8995210414 5.9399804295 4.747734386 
4.0282565889 4.8424422546 3.8463305655 3.8742924272 3.0826478489 2.1234738035 4.4763363133 1.0553902748 7.9369452164 
-0.68660585635 7.4750238346 7.5519606715 4.7368521642 4.9390280913 6.5635516976 0.51971227458 3.794416984 2.8898533891 
4.4732410556 0.68214857901 2.7673089255 1.4501337741 2.4708517878 5.8079202267 3.5310407033 4.2760159202 3.0811369497 
-1.9837802883 -1.4478627175 -0.80147771982 -3.2208331942 -1.9442554161 -2.5118230512 -1.0402192764 1.4130595824 -2.3471206245 
-1.5700674555 -6.1166169612 -5.4812484272 -0.44184154792 0.6490318176 -0.75297134501 -0.44095561706 0.46377880026 -1.0750573071 
0.83853737018 -1.2091531312 -3.6202660719 -3.6890417543 -0.92433826169 0.18957714846 -3.7123202979 3.0153306943 2.2733271121 
3.4043759172 -0.27363345101 -2.0607521417 -2.7774735232 -5.2303749573 -0.38786130567 -0.56672692226 -0.47819672348 -0.43325079099 
0.47496565387 2.6823687029 1.697593019 -0.23305753342 0.25837031875 2.7395493461 0.72809399608 1.2443042903 0.07933396439 
-1.9843580809 -1.1133167996 -3.7512840659 -1.5997025815 -5.5273722018 -4.6217978835 -5.9215859752 -6.3131087418 -3.1658926582 
-6.585738945 -8.284686081 -6.1047141994 -8.2021022185 -1.6787270062 -7.6764054919 -7.4456450736 -5.3774645801 -7.5409053643 
-4.61524887 -5.2797316089 -6.9402068528 -4.5766869198 -6.1431246562 -7.0013526635 -7.7200659315 -8.5063527653 -7.135010389 
-8.2973457777 -5.5597098113 -6.4365796622 -6.2560342722 -3.2102951298 -7.3561065637 -7.5255710459 -7.336597105 -3.7201111914 
-7.4253199214 -7.4645807514 -8.6090431356 -7.2578641823 -7.2821801738 -7.9884771513 -9.4632658278 -9.0485484672 -8.1996743896 
-9.0445689123 -8.5954877072 -8.406927798 -7.6164650646 -7.7311213802 -8.7457314228 -8.583010502 -7.9131519618 -8.6512954833 
-8.4815320657 -8.228914283 -7.5746984594 -8.7226679122 -8.3484569933 -9.3797284273 -8.8013338146 -8.705733971 -9.688627554 
-9.9651152204 -9.7574184293 -8.8949701189 -9.5211951672 -9.2296450192 -9.5083412264 -9.8636659964 -8.9606883564 -9.2338449437 
-9.3473961729 -9.5309293648 -7.7031723278 -9.3695260811 -9.3690877109 -5.1033493248 -6.9698139559 -8.9564226057 -1.7109140285 
-7.3371500278 -6.8348702545 -5.3956612247 -4.4376857986 -8.9944900657 -8.2946397923 -8.6404828261 -8.1568085649 -8.6324983526 
-6.2709165163 -8.2146280256 -7.626937365 -5.799183993 -6.7323848892 -6.9945950209 -5.2305250941 -4.817251794 -7.6413535163 
-0.97725504044 -4.7884809202 -6.3392939907 -7.8314087665 -7.5054418763 -6.490632093 -8.8983466302 -9.2247675187 -8.8877822504 
-9.2387618222 -9.1501118545 -9.4488871086 -9.3596050655 -9.5460556348 -9.9133444629 -9.6330918502 -9.7120165405 -9.6326491648 
-9.4152010638 -9.3353713255 -9.5663751662 8.2482088499 7.9220342008 6.4993290866 2.9574465301 6.0126567792 4.3118000366 
8.4640129887 7.3927052225 9.9610769791 7.4568277511 9.2142861415 8.4245633663 5.7250781401 6.418551632 4.4210156023 
8.0667942604 8.2132328179 8.1692983296 7.5867992605 8.4139823995 7.3112673537 9.1421593542 6.3806765666 9.2092060659 
9.4328415096 7.4307239109 8.0137507086 8.2407803247 7.0156813312 8.6197895308 8.0849788892 7.5605487952 8.401594176 
8.8254015853 7.0759053666 6.674854599 8.8604965828 8.6984005233 8.7218266797 9.3719870608 9.6571763236 9.9480076687 
7.6257537546 9.9506829949 8.0383052498 7.9649381498 9.4793884804 9.4842930674 7.9784181458 7.9071665536 8.1382910834 
9.0068778065 9.5343554969 9.7351328417 9.5238003023 9.2358481354 7.4489543227 9.6475522447 9.1669432756 9.3153597078 
9.6426413694 9.9441689302 9.6036987516 8.6250051676 9.9475000829 9.1320543726 8.5046798105 9.9704327207 9.0914739754 
9.1478876508 9.0588507149 9.8471391415 9.6251192192 9.6356335233 9.6838809689 9.1535732237 8.8523521721 9.7735488227 
8.4322123727 7.4637167444 8.1648100146 4.7195751528 6.5059325822 9.8048650185 8.9421736487 9.0079984507 9.609955356 
9.2011662883 8.1013644174 9.6712939856 8.4851372906 7.2844227646 7.5314143189 9.6878009975 8.1398350434 4.083743676 
7.2804692537 7.7151644397 4.4181389108 8.4548721889 8.3649957396 9.0659111335 9.671879622 8.6959290128 9.6225320289 
8.7504978026 9.129723861 9.2068581153 9.984628707 9.0017430397 9.4056965865 9.8965454431 9.9557189209 9.9092680962 
9.8603873135 9.3851457483 9.6875321281 9.7070647072 4.3837336374 3.6750271837 5.0001325994 9.0860488683 5.6862481967 
8.6253215254 7.8730200734 7.0771932226 7.6783194173 5.3181384762 3.1907666901 4.6449323803 7.3190137265 3.241693088 
-1.132997913 -1.0909316573 -1.211813625 0.39560511898 -0.71641909628 -0.049909909138 2.5358026535 -2.4014342426 -3.4634960528 
-3.2735432384 -2.6749559988 -5.4537250592 -5.5464501089 -2.2959224533 -2.3696067598 -3.6635819473 0.47233208394 -4.7405736917 
0.8812748339 -2.0447751249 3.901619651 5.4312838819 -0.96228917833 1.0871767797 1.3275331155 -0.68023116265 -1.7900663808 
-3.1176210223 -4.0174787111 -2.8701785448 -6.0812963612 -4.5017695114 -4.6363758307 -4.2532255711 -5.7980396113 -5.5712091581 
-4.3287113168 -0.88734314053 -1.5740485 -0.38847550559 -3.5016773188 -5.5151430854 -5.5981500301 -3.1632312834 -5.8963383067 
-6.0604927776 -1.8266756535 -1.3422250985 -1.980669868 -3.1950219803 -2.1411000545 -2.2673401322 -2.7736305934 -2.3790993317 
-3.7760074731 -4.379566971 -3.6695747237 -0.28075219323 2.895927945 4.1423563063 3.8359907092 1.7659985644 4.7752375034 
3.7754892451 8.4418296774 6.8980584997 7.049073677 6.3636881806 8.8437127139 2.6299874416 4.0124636895 2.9671602878 
1.7257556295 2.7247115474 1.3607302687 2.2393599864 5.4439527711 6.5623023443 7.2201562808 1.3074199955 4.4708109172 
3.6802830762 3.5059259773 8.7052459617 7.548820863 4.8891969395 3.8932750716 3.9681445981 3.996834065 5.4065237212 
4.1967417175 5.7438941612 1.9615104935 0.65037422154 1.4274671135 1.6680637904 3.697904602 -0.89380224572 -1.0171604487 
-0.4320143947 1.0575530991 3.5423693557 1.3208816318 1.1392764032 5.7422455187 9.8172349185 4.2347447268 4.9791760054 
5.2497862386 0.7137667161 4.0539547292 3.9383905935 2.8511319953 4.5926775914 3.707407593 4.0711234082 6.7901133144 
4.5779197796 5.1908005117 -2.1223675854 -2.7166821574 1.2824800694 3.6644596373 0.94431168793 1.1412255237 -1.3180086553 
-2.829133137 -0.5537116607 -1.4247808907 -5.8609560049 -5.7841382281 -1.126610187 -1.5274447658 -5.7950934218 1.4419190297 
-4.8224056315 2.7625962693 0.93667366937 2.0392755112 3.8426551998 1.7752804066 0.13688318727 0.89799950949 3.0573178788 
-0.17580043058 -3.3605064877 -1.4974319244 -2.2485785404 -5.029242771 -5.8182005165 -1.587075828 -5.57142923 -4.3316388643 
-3.7732939914 -0.70013290142 -1.4392733484 -3.8673844178 0.13193760026 -3.6052052826 -3.9213538398 -4.3956662477 -2.4195719208 
-6.0221286942 -5.6811135626 -0.13589154809 -1.5427312119 -1.4967713987 -1.0578236963 0.16757012892 -2.0508148929 -1.3652374817 
-0.96191894657 -2.6487950408 -1.6201167449 -1.5998716934 -0.99540898957 1.137835091 3.3185610266 2.3252050499 -0.29479031019 
3.9313750577 2.2577152851 5.7278822424 5.2894298255 3.5162218776 6.0382350795 5.3635513217 1.1116617677 1.9710257773 
1.4642075002 0.84224632394 1.5000592534 3.6123001575 1.7222738905 1.5425338079 4.8799024149 3.3386718059 4.0714108977 
1.3845049104 3.3250742177 5.2725609649 0.5382656863 -4.3325654555 1.6583238279 1.3586774273 2.9251747165 7.0872621593 
1.219516905 2.1564157329 1.904286509 2.0561237328 1.3206701798 -0.70972549741 0.90556831843 1.8201423332 0.943472478 
-1.4415901309 0.67788829043 0.31670686073 1.6486095373 3.5521756284 2.4873962605 
