# vtk DataFile Version 5.1
vtk output
ASCII
DATASET POLYDATA
POINTS 356 float
-0.534544 -0.489668 -0.901866 -0.00818024 -0.0268929 7.75159 -0.0965444 7.44615 -0.549148 
0.375525 7.02871 7.62385 7.43125 0.310398 -0.598543 7.35627 0.6665 7.48649 
7.28838 6.99588 -0.046759 6.88019 6.60482 7.21751 -1.25342 -0.962929 0.284362 
-1.73021 -1.21897 1.75684 -1.81587 -1.09859 3.24822 -1.79474 -1.13975 4.61724 
-1.38192 -0.916731 5.93375 -0.649863 -0.41359 6.81633 -1.09121 0.387379 -1.09207 
-0.953538 1.75708 -1.69515 -1.28747 3.17866 -1.81367 -1.35384 4.7574 -1.55175 
-1.06429 5.83877 -1.00471 -0.455225 6.90258 -1.09981 -0.499377 7.72604 0.511151 
-0.775222 7.64753 1.98364 -0.956766 7.96635 3.48355 -0.87445 7.88119 4.72666 
-0.36936 7.41511 5.81947 0.0278863 7.39594 6.90556 -0.441945 0.83105 7.68181 
-0.386986 1.90719 8.28528 -0.464339 3.24185 7.93518 -0.620978 4.56131 8.07063 
-0.447468 5.72281 7.67002 0.250848 6.47921 7.98858 7.93003 -0.206344 0.227236 
8.35742 -0.579533 1.60305 8.41933 -0.678002 3.18954 8.47516 -0.692455 4.71089 
8.23956 -0.377219 6.03129 7.7052 0.27668 6.89016 7.88922 0.891459 -0.621487 
7.64644 2.01396 -1.14211 8.08206 3.30899 -1.00028 7.87592 4.78663 -0.754333 
7.787 5.74587 -0.462594 7.41979 6.58498 -0.401482 7.32687 7.42007 0.731941 
7.45137 7.60597 1.89472 7.59558 7.64464 3.30136 7.58969 7.59097 4.70985 
7.15453 7.21585 5.8042 7.21884 6.96918 6.71316 7.48202 1.22275 7.32274 
7.62302 2.10129 7.82686 7.73701 3.39467 7.76198 7.62768 4.5625 7.70815 
7.52749 5.57441 7.43608 7.14431 6.20067 7.40186 0.616639 -0.773128 -1.58131 
2.03473 -1.20057 -1.46263 3.46568 -1.11708 -1.60272 4.82458 -0.979122 -1.67033 
5.97772 -0.605917 -1.44231 6.70654 -0.142575 -0.964627 1.0079 0.0679692 7.88836 
2.06671 -0.700283 8.00694 3.62485 -0.443626 8.10441 4.96719 -0.18551 8.13746 
6.04945 0.0321238 8.06515 6.80531 0.498601 7.62729 0.69608 7.63179 -1.26261 
1.77249 8.03107 -1.22084 3.50957 8.16024 -1.49982 4.87676 7.74618 -1.41764 
5.83082 7.46373 -1.11649 6.76053 7.37052 -0.593635 1.09994 7.02622 8.06219 
2.05875 7.36692 8.01706 3.61161 7.46052 8.12945 4.72723 6.96206 7.86567 
5.74359 6.88879 7.76962 6.50613 6.74461 7.58785 -2.59829 -0.811301 3.97915 
-2.72454 5.02189 0.98959 -2.11682 5.03157 6.61244 -1.70245 -0.146647 6.70662 
-2.09236 -0.418914 0.926131 -1.38058 2.5035 7.40795 -0.23334 6.43673 7.22626 
-1.60514 7.04716 5.40436 -2.19724 2.45226 -0.552818 -1.9159 6.94538 2.68179 
-1.05987 6.61702 -0.155039 -3.07565 4.8774 4.0041 -3.2484 2.47034 2.57102 
-2.83154 2.53692 5.29446 -0.837738 0.0645292 7.70882 -2.06341 -0.496783 5.37222 
-2.4865 -0.792848 2.41559 -1.22746 -0.207971 -0.415883 -1.64847 3.89738 7.26147 
-1.13698 4.98969 7.23902 -1.31669 5.96615 6.86406 -1.95476 5.8817 5.82779 
-1.12668 6.80656 6.47293 -2.38511 3.74743 -0.164653 -2.17589 5.02805 -0.342691 
-2.61653 5.91614 1.94495 -2.01329 5.91715 0.570644 -1.73229 6.95189 1.23102 
-1.89312 6.84092 4.0093 -2.67176 5.98539 3.44059 -3.17832 4.95604 2.67991 
-2.58385 6.06966 4.73225 -2.78887 5.05462 5.33379 -3.22371 3.8348 1.95665 
-2.85828 2.48494 0.826277 -2.02806 0.51659 -0.0613083 -2.61447 0.123048 1.73393 
-2.77322 0.047587 3.28569 -2.56468 3.85675 5.77208 -2.24309 2.47757 6.46086 
-2.62799 0.0501243 4.69596 -2.19133 0.409199 5.90575 -1.3178 0.803605 7.11791 
-3.24751 2.50094 4.09084 -3.10413 3.87916 4.59796 -3.42486 3.92625 3.33484 
8.68348 0.110233 3.94678 8.47121 4.90474 1.25458 8.44193 4.84403 6.28771 
7.92665 0.640976 6.31219 8.13253 0.425735 0.99988 7.95867 2.66232 7.06125 
7.30453 6.32833 6.96125 8.07042 6.689 5.25549 8.23386 2.614 -0.0596749 
7.91939 6.7062 2.71404 7.82454 6.51232 0.299012 8.69424 4.84799 3.89173 
8.93765 2.34707 2.50379 8.95856 2.48982 5.17939 7.67852 0.876878 7.20702 
8.08579 0.37638 5.19111 8.45664 0.228736 2.46074 7.93355 0.501265 -0.247686 
8.43226 3.84605 6.8736 7.79533 4.88782 6.89675 8.09861 5.7284 6.71027 
8.19173 5.72881 5.66811 7.84598 6.5141 6.22303 8.46135 3.94068 0.353492 
8.55159 5.09794 0.162407 8.5979 5.92121 2.04555 8.21053 5.87917 0.840247 
7.89084 6.58604 1.44066 7.90315 6.73152 4.03892 8.49948 5.94381 3.37864 
8.68227 4.89888 2.59693 8.51543 5.95535 4.6183 8.75841 4.84016 5.21394 
8.89866 3.74722 1.95668 8.46165 2.49443 1.13596 8.20997 1.11215 0.232627 
8.5719 0.98712 1.77093 8.64404 0.836945 3.24785 8.57862 3.73802 5.72446 
8.61829 2.50393 6.328 8.82642 0.809008 4.56972 8.55156 1.03928 5.88275 
8.1446 1.26385 7.00504 8.80067 2.54763 3.98163 8.96726 3.75268 4.59739 
8.99389 3.6634 3.36056 3.08284 -2.5793 0.860389 3.22787 -2.33789 6.46686 
7.61945 -1.02864 3.97175 7.44315 -0.308145 6.57926 7.38645 -0.817483 0.889561 
5.60867 -0.821057 7.38415 0.816046 -0.916016 7.46396 0.619256 -2.21257 5.13573 
5.5906 -1.55307 -0.55207 0.432548 -2.55882 2.49663 0.553283 -1.55926 -0.508985 
3.26841 -3.17541 3.94091 5.49989 -2.60699 2.59101 5.6361 -2.25427 5.3207 
7.3001 0.0683649 7.43604 7.48932 -0.850922 5.29437 7.75693 -1.249 2.40156 
7.38674 -0.413316 -0.520772 4.54841 -1.53035 7.41093 3.18839 -1.29583 7.26083 
2.01831 -1.81468 6.88152 1.96134 -2.46154 5.70363 0.646943 -1.71115 6.4447 
4.33274 -2.15205 -0.343831 3.04768 -2.06634 -0.573317 1.84823 -2.98168 1.74913 
1.86909 -2.39095 0.16052 0.557693 -2.04828 0.903655 0.587035 -2.5188 3.86319 
1.93968 -2.92828 3.2706 3.22183 -3.20172 2.57154 1.9092 -3.00751 4.57996 
3.31585 -2.81191 5.13901 4.34498 -2.97788 1.76169 5.52393 -2.12014 0.762642 
6.86864 -1.09084 0.0430942 7.18038 -1.76281 1.54517 7.39362 -1.84759 3.2676 
4.42078 -2.38685 5.72485 5.80338 -1.68952 6.57732 7.33982 -1.68911 4.74857 
7.15085 -1.23052 6.06597 6.82736 -0.585237 7.26254 5.57926 -2.6097 4.03121 
4.43689 -2.88998 4.58752 4.33711 -3.07991 3.31496 2.91901 8.91051 1.11435 
3.08348 8.38396 6.5011 6.89497 7.76778 4.07937 6.89763 7.5812 6.43273 
6.95376 7.86043 1.18716 5.37134 7.58937 7.41171 1.06144 7.37248 7.20893 
0.54519 8.4062 5.48905 5.43965 8.31927 -0.0671996 0.29111 8.63079 2.6215 
0.626652 7.88866 -0.0420738 3.05845 8.81864 4.0627 5.33409 8.45944 2.65602 
5.48212 8.52893 5.44398 6.85468 7.16768 7.26223 6.9618 7.7667 5.32657 
7.02981 7.94817 2.68528 6.95344 7.39497 0.109648 4.17334 7.97987 7.19883 
3.02031 7.77055 7.34188 2.00718 8.03382 7.00433 1.89559 8.27154 5.85138 
0.753172 8.0226 6.45093 4.17475 8.4709 0.0581657 2.96618 8.23797 -0.107112 
1.73586 8.71617 1.98171 1.72027 8.68794 0.425128 0.461168 8.37473 1.24967 
0.412495 8.32521 4.08382 1.65634 8.99726 3.48674 2.97702 9.09038 2.62718 
1.69026 8.91588 4.72449 3.03455 8.83838 5.4902 4.30637 8.8206 1.86356 
5.35605 8.40871 1.19443 6.44644 7.94253 0.407935 6.55809 8.35442 1.90272 
6.5431 8.3708 3.29291 4.34175 8.39485 5.94187 5.38264 8.04408 6.45006 
6.54762 8.19768 4.71375 6.45002 7.85643 5.90762 6.24587 7.30764 6.90729 
5.53479 8.61446 4.06313 4.32062 8.8628 4.77234 4.26997 9.09105 3.41086 
1.29905 2.87447 -3.17706 6.43857 2.98377 -2.74621 4.09614 7.52761 -1.97432 
6.46581 7.02377 -1.24513 1.21707 7.07184 -1.58283 7.36038 5.37636 -1.60486 
7.20264 1.00447 -1.29947 5.23562 0.547535 -2.36654 -0.213374 5.43724 -2.21697 
2.81658 0.461279 -2.85274 0.00450328 0.446146 -1.92957 4.10359 3.05483 -3.66452 
2.74974 5.32115 -3.17253 5.35543 5.47995 -3.02566 7.29941 6.89756 -0.718125 
5.51283 7.36523 -1.93904 2.75506 7.36613 -1.75776 0.143793 7.12352 -1.20217 
7.17145 4.15675 -1.98195 7.13319 3.00027 -1.78472 6.76362 1.86349 -2.1805 
5.73622 1.82207 -2.83087 6.4784 0.60433 -2.06913 0.0248573 4.10909 -2.75278 
-0.217788 2.79785 -2.75615 2.11324 1.54854 -3.37675 0.644116 1.63106 -2.80048 
1.34276 0.429865 -2.43115 4.23206 0.323286 -2.83707 3.41666 1.7567 -3.31633 
2.82389 2.92717 -3.70986 4.64596 1.79244 -3.37165 5.21943 3.04831 -3.25424 
2.11377 4.05668 -3.53164 1.08476 5.32937 -2.85154 0.327086 6.66636 -1.89712 
1.94676 6.90858 -2.42916 3.44026 7.01826 -2.6152 5.73299 4.23826 -3.00706 
6.37688 5.41529 -2.15541 4.8322 6.80515 -2.26104 6.02022 6.65514 -1.95429 
6.97865 6.41783 -1.14068 4.10968 5.49974 -3.2148 4.62862 4.18118 -3.48233 
3.42314 4.12794 -3.61393 1.42999 2.88946 8.79449 6.36704 3.1523 8.76308 
4.08342 6.88226 8.44071 6.32529 6.64214 8.27557 1.54589 6.68551 8.28948 
6.96515 5.09875 7.94265 7.07264 1.30755 7.9622 5.39559 1.00399 8.39238 
0.311765 5.18305 8.20196 2.93761 0.729538 8.58636 0.376441 0.786682 8.38348 
4.18001 3.04583 9.0927 2.77477 5.19772 8.91794 5.32092 5.14848 8.61621 
6.8841 6.42468 7.54919 5.30016 6.74129 8.36504 3.00417 6.73789 8.19495 
0.701036 6.64137 7.88279 6.92066 4.14482 8.41646 6.96746 2.93136 8.11082 
6.74797 2.14828 8.29706 5.87764 1.98655 8.78078 6.44329 0.99607 8.35668 
0.59563 3.93498 8.61185 0.218472 2.73018 8.79171 2.25089 1.72006 8.98957 
1.01144 1.9282 8.55708 1.58035 0.719277 8.51324 4.32559 0.763568 8.70621 
3.50448 1.93091 8.86176 2.82454 2.97474 9.03374 4.718 1.87605 9.01365 
5.30637 3.14488 8.9119 2.08296 4.09426 9.17548 1.47519 5.14898 8.56978 
0.952115 6.16153 8.18876 2.15163 6.31631 8.61767 3.47537 6.25845 8.63241 
5.71111 4.11989 8.73052 6.33545 5.2505 8.5102 4.69769 6.23883 8.43423 
5.65589 6.0637 8.23744 6.70539 6.06441 7.86922 4.20395 5.20743 8.99738 
4.64166 4.20782 9.11123 3.41577 4.20982 8.98166 
POLYGONS 709 2124
OFFSETS vtktypeint64
0 3 6 9 12 15 18 21 24 
27 30 33 36 39 42 45 48 51 
54 57 60 63 66 69 72 75 78 
81 84 87 90 93 96 99 102 105 
108 111 114 117 120 123 126 129 132 
135 138 141 144 147 150 153 156 159 
162 165 168 171 174 177 180 183 186 
189 192 195 198 201 204 207 210 213 
216 219 222 225 228 231 234 237 240 
243 246 249 252 255 258 261 264 267 
270 273 276 279 282 285 288 291 294 
297 300 303 306 309 312 315 318 321 
324 327 330 333 336 339 342 345 348 
351 354 357 360 363 366 369 372 375 
378 381 384 387 390 393 396 399 402 
405 408 411 414 417 420 423 426 429 
432 435 438 441 444 447 450 453 456 
459 462 465 468 471 474 477 480 483 
486 489 492 495 498 501 504 507 510 
513 516 519 522 525 528 531 534 537 
540 543 546 549 552 555 558 561 564 
567 570 573 576 579 582 585 588 591 
594 597 600 603 606 609 612 615 618 
621 624 627 630 633 636 639 642 645 
648 651 654 657 660 663 666 669 672 
[...]
CELL_DATA 708
SCALARS scalars double
LOOKUP_TABLE default
-3.2847654726 -8.8538807257 -4.260842797 -6.6260194983 -4.964655347 -9.3153097964 -7.3576832417 -6.0693170354 -8.8663866562 
-5.4453985494 -6.5380167898 -4.8489288428 -5.2095196966 -4.08780765 2.5697576504 3.442168673 1.7223782103 -0.041431536368 
3.1937036805 -1.4965160581 5.246842716 4.5824854013 4.0228523253 3.9354694001 4.7252277439 8.5399058727 8.4062080767 
3.8612373941 3.9361140793 4.9935710455 2.2166064789 5.6321179639 1.6777674446 -2.244847754 -2.2840860007 0.97736159046 
0.49992177665 0.59582630927 0.54751672375 4.7491345199 6.0664106109 4.990012039 4.507887428 7.5709102353 6.0503046278 
5.970671735 8.2925690166 8.3114985738 5.091387435 4.8738442536 5.7902218366 4.6807177444 6.8837476289 4.30892047 
6.808957198 7.6282835544 5.8938720558 6.5588442356 6.6245172695 3.5467264719 3.828138337 4.7295401275 4.1126608084 
2.8830071205 5.1774152628 4.4699673788 3.6007932839 6.9046172125 6.4809880698 6.7062410224 0.8811578279 -0.012668320531 
-0.80620270747 0.57961588808 -2.0917816644 -5.214027217 -4.8950814203 -2.2242463617 -4.7762990594 -4.7933465028 -5.4379669087 
-2.1723123372 -3.1580897622 -1.8203698432 -1.8457568827 -2.2729150377 -0.50986844583 0.17194648255 -0.70865664888 0.62152264234 
-1.6551454757 -5.7066351093 -5.1186230142 -3.594771853 -1.4485230482 -4.9517810631 0.8881163 0.58370499454 2.9832008654 
-1.4105480862 -1.4035053506 -1.838335089 -1.1887121602 -1.5497020619 -1.9120551772 -2.2048690533 0.32397203181 0.045924658021 
1.4116415854 -0.17427897232 -0.45726181434 2.8619877548 1.9770548157 1.3765414341 1.7497428666 -1.2188760538 -0.22094118464 
0.10137957065 -4.1351830542 -2.9419274777 -2.367523855 3.0184290398 -2.2511211485 -2.8463971672 1.5234645674 -1.4086438967 
-0.7603028924 -0.73087385108 0.42672426056 -1.9777633928 -4.3909283811 -5.0374439943 3.8117370165 4.8120111185 -0.63881078807 
-2.4617191356 1.6470973807 1.0067176938 3.2535455455 5.5199876112 2.2988341175 3.5156880885 6.2291883278 7.5305554929 
7.3859673791 3.5017361381 3.3252444155 4.902767622 -0.83874793292 5.462403247 -1.5480529779 -2.6576882477 -0.98339260202 
-0.67521804895 -0.95506005222 1.8571876654 -1.5497484867 1.2169356805 6.9047997261 4.6722965977 5.7674353573 3.8227894452 
5.0910077698 5.7295396382 4.5164392914 4.1730766992 2.7619860485 3.051072253 5.9000911555 2.5912977083 5.5778869945 
3.8797946979 4.1502759441 6.1864515396 6.3024352408 3.2313569355 3.3115280561 -0.02248081453 1.739600466 1.2005714532 
2.5848066158 1.8888665401 4.2407366731 3.7239087072 1.6849588599 5.7354685851 6.0453797512 6.1193759469 2.0883404544 
-1.0601320905 -1.0560844408 -1.4964983069 0.35069185537 -5.082005601 -2.065700186 -2.2361047699 -1.8445936629 -1.3717212423 
-1.3644742229 -2.1102271877 -3.7073391417 -0.72290263971 -0.52956477289 -0.26151800082 0.61113209144 1.6646370229 -1.7733191263 
0.89293385664 -1.5851751035 -0.87349445068 -0.43823185635 -7.222056177 0.98886933504 -3.5153565073 -6.4616888945 0.90072861302 
-0.53975228592 0.73158196331 -1.2936361488 -1.5243945383 -0.7903309277 -0.29990455295 -1.3726159946 -0.31764835472 1.430131255 
-0.25466877796 2.1354402354 -0.032364512782 0.013745665047 2.4495066733 2.6187895212 2.1301920235 2.4384954117 -1.1167972045 
-0.68394380932 -1.5305278701 -5.4873441374 -1.2417800161 -7.8340716787 -9.1156151871 -7.015532214 -9.2364012546 -5.6668438074 
-6.5785550725 -7.1188845485 -5.4614704968 -8.0734740411 -7.1634537716 -1.2286348771 -1.109252986 -2.4548566674 -5.9962811795 
-6.3883884706 -6.6926084424 -5.28221966 -7.2078262903 -4.9157574923 -8.5365760193 -7.4179169634 -8.854421504 -8.5127407349 
-8.4650714186 -6.0444753756 -6.4088134055 -6.5012753257 -3.1865534262 -6.0575894363 -6.9475219575 -7.0970872049 -3.7989147446 
-7.1347171971 -6.9395252292 -9.4156708934 -7.6880058362 -7.5650598311 -7.4708882241 -9.3611162645 -8.5526971273 -8.6796145189 
-8.5463485422 -8.4372634205 -8.6048462277 -6.9089275993 -6.8356300761 -8.6196349285 -8.5255638128 -7.8184601443 -9.4005049034 
-7.8942528409 -7.2999573942 -7.8678859699 -8.7271672026 -8.5269108288 -9.6386704164 -8.4827990763 -8.6276313018 -9.3676094958 
-9.8043239933 -9.8176840446 -8.4109133288 -9.5697107077 -9.386830245 -8.9744879568 -9.8642287404 -8.6994555803 -9.6226910196 
-9.4690013081 -9.3050050836 -8.6540505635 -8.6874315446 -8.7361404109 -4.8110639191 -7.4537816804 -9.1191537985 -7.0389465262 
-7.027623067 -5.7310357228 -6.4092798832 -4.3264564708 -9.1911768147 -8.262520899 -8.106032211 -8.7464211534 -8.9993785388 
-5.7337789573 -8.8282810184 -8.4667888536 -5.349216815 -5.3899847063 -3.2159444606 -6.7246448669 -6.0986650399 -4.9181783781 
-1.065325531 -3.160086241 -6.4290206358 -8.4979884069 -7.324101361 -3.1953527039 -8.9768079402 -9.2509728628 -8.9857588337 
-8.8903771652 -9.2364713835 -9.5507967843 -9.0543958291 -9.3710312968 -9.9504551706 -9.3974172764 -9.8654286887 -9.7726964854 
-9.3077244543 -9.1086056273 -9.4936144337 5.3336248528 -0.063094407905 6.2161317454 6.227446742 8.2570722154 9.7612105039 
4.8891008475 8.1710641795 8.4061829634 7.5578010827 7.4057036084 7.3160064552 6.7602138619 6.7617512453 7.8956236059 
8.082716308 8.9451356808 5.0046486327 5.6131822637 9.0379082908 6.4710825935 9.5360667087 6.5585013453 9.2830018993 
9.723506437 6.8934238239 8.0189275072 8.5684355592 7.0783557426 8.805244077 8.0731043454 7.5065226499 8.3548623818 
8.9951835636 7.8014702946 7.5659721855 8.6979912386 9.07935649 9.0601704304 9.7760305457 9.8469206213 9.6917421003 
8.1904917219 9.6796318904 7.8066501224 8.7672383442 8.9264302364 8.8831558555 8.4631897314 7.7902886421 8.2220578876 
8.7232913486 9.1601828762 9.9204981512 9.1886040477 9.4155460566 6.6430330377 9.7179433414 9.1590868601 9.5418808622 
9.65927384 9.8184090803 9.6292896381 8.6322471141 9.978194082 8.6389729137 8.2152933066 9.9293899214 9.10159671 
8.9852542418 8.9141431386 9.6504053999 9.9164693776 9.3633785026 9.4866199866 8.6424816491 7.7415701496 9.9682889882 
7.2289701327 7.6641395142 7.7099456641 7.5620125778 8.0520451851 9.9732654912 9.2917573656 9.3978450879 9.3497548896 
8.9407231644 8.8231581249 9.3197367981 8.4608132948 8.3455290702 7.4165396856 8.41234783 5.9224242001 9.4334983297 
8.7818216561 -0.25145418991 7.051791881 7.932968597 8.2405743634 7.7073746141 5.6603079004 9.3766261416 9.819130275 
9.4235404363 9.2748058359 9.0202884439 9.9953492766 9.1358781247 8.927221554 9.7465337561 9.8403140771 9.8034202277 
9.7720333631 8.9429642149 9.6868224784 9.4823265742 4.7676177184 7.5917661255 5.4793833068 9.0693906132 6.2064537891 
7.2098493419 7.2790180471 6.3576190183 4.4995276119 5.5808589651 4.0905055397 5.8681889627 7.7022974772 5.9936520259 
3.708564794 -1.2548424284 -1.4767014245 2.0442692681 0.2307596316 -1.4011622034 2.0547376431 -2.5777389212 -2.2664431663 
-4.1157134081 -1.9314417314 -5.1912315122 -5.3997787281 -4.5366559029 -4.6235206166 -1.8533988464 -0.59932074467 -2.3777264151 
-0.23395362734 -4.7960675295 4.7686510697 4.4674915025 0.52335623329 2.1164770634 1.0199423112 1.1895787912 -0.86545700562 
-5.3596597097 -4.4325867288 -4.5424818647 -6.3021959777 -4.0696790517 -4.8116010327 -4.6848645335 -5.3704264141 -5.6475893096 
-2.7099482909 -1.5359535357 -3.757399991 -2.1925234145 -2.8126213417 -4.6797771404 -4.6260760933 -3.7705835004 -6.3332511999 
-6.594572835 -0.59055995966 -2.8938008154 -2.7684526614 -4.4948770017 -0.69490204549 -1.5864587552 -1.1960546195 -2.4075456842 
-4.1521853609 -3.2800818963 -3.3360484001 -0.39542017861 2.7936591006 3.4971117282 2.1783326031 2.9992138517 5.3366823348 
3.6030480753 7.2946879046 7.355718684 6.8428728165 8.8218635902 8.8050934426 3.4295388078 3.8560777648 4.1149215293 
1.5932912482 1.8473163301 1.8877191192 2.528195671 5.5934060361 6.5922941752 7.0895106999 2.1265087826 4.7508355639 
5.2533474348 4.3541604459 3.300408663 -1.5415843315 4.950995193 2.9758446973 3.0139856635 5.8867229229 5.346700734 
3.3804895018 4.5795057132 1.0444108471 0.25139233073 -0.090299436945 0.20658803842 3.0775166027 0.65295022468 -0.57128746023 
1.1334896509 1.1187320569 3.1095697328 2.5267325086 2.3383211412 3.7692117514 6.9085549553 2.7145785677 9.4673838953 
5.0713756736 6.7717218799 9.5243825858 3.9349820334 1.570644835 4.7678271512 4.4237834487 2.1322346005 5.5359466574 
1.3605130493 4.0683134927 -1.4835041536 -1.9345860734 2.701887691 3.5029645629 0.098478857171 0.96923151993 -1.9885696943 
-1.0725881283 -3.7958382923 -0.86517382324 -3.0063771514 -4.4979193524 -4.5447882329 -4.6593718009 -4.2130786216 -0.41344800011 
-1.6986926199 0.75333897061 -0.30389712495 3.5178670305 2.797287097 1.5452348781 2.385713444 -1.4476100149 3.0666808777 
-0.82949497542 -4.0391617781 -0.88423503053 -1.9903939652 -3.7782494271 -6.3154908643 -2.6265730256 -5.9712724971 -4.2643102006 
-3.5002081177 -0.43472007602 -2.5234566597 -4.2498490021 1.3178619787 -3.601132534 -3.1021666462 -2.4727005454 -2.8541817697 
-4.1307424105 -4.7739908028 0.43776689924 -1.8344338643 -0.87695336482 -4.490298553 0.059284879832 -0.43382907271 -0.13254077152 
-1.2571395445 -3.5915841213 -1.8672419896 -2.2089779693 -1.0982415072 2.3956248177 3.6774516753 2.9578352735 -1.0477358528 
1.9123378334 2.5957030708 5.3903461942 5.002965813 3.9462065831 6.8550261666 2.2638127094 1.1194917153 2.0229102356 
1.655353045 1.9644948637 1.4315854995 3.0164317722 0.50356269855 2.9346977903 5.7669803688 4.7552356601 -0.8715177305 
2.0956620724 4.5111280198 -4.070443105 6.1694240314 2.9723832599 2.359736752 3.6265040084 5.1000318641 1.4352079296 
3.3123193635 2.9327485388 4.1661041859 2.3132455891 1.2591861949 -0.81196601297 0.34792211231 1.4746485134 0.64402401812 
-2.223822469 -0.28321089123 0.25876133359 0.2825684103 2.4616613792 0.67138935587 
