# vtk DataFile Version 5.1
vtk output
ASCII
DATASET POLYDATA
POINTS 356 float
0.488551 0.594927 0.277811 0.56758 0.567262 8.73635 0.672789 8.3771 0.289959 
0.772147 8.34074 8.65239 8.57765 0.613644 0.13912 8.60466 0.844295 8.76126 
8.61223 8.402 0.373948 8.52805 8.13525 8.5469 -0.0096406 0.295445 1.2552 
-0.401558 -0.144703 2.55326 -0.658539 -0.361679 4.08766 -0.635472 -0.271753 5.57513 
-0.462403 -0.119282 6.91225 -0.0318737 0.279928 7.82333 0.0741431 1.39296 0.256449 
-0.0624404 2.52732 -0.460298 -0.301271 4.05274 -0.491342 -0.286138 5.71107 -0.355629 
-0.155179 6.86715 -0.0415315 0.323917 7.87396 -0.252649 0.394622 8.53768 1.28425 
0.0130075 8.63786 2.67591 -0.182155 8.83601 4.17759 -0.1108 8.64 5.53613 
0.0448016 8.69741 6.8253 0.595427 8.43017 7.89033 0.203809 1.39887 8.6989 
0.00401305 2.51112 9.30822 -0.195176 4.05983 9.24963 -0.107973 5.73357 9.08142 
0.00576612 7.02333 8.90821 0.742099 7.75849 8.82434 8.94152 0.146203 0.929724 
9.15285 -0.0990954 2.37622 9.26995 -0.303372 3.99827 9.25414 -0.307999 5.66417 
9.2795 -0.0537857 7.11337 9.06384 0.308502 8.2228 8.92993 1.26402 0.126678 
8.89892 2.49189 -0.378437 9.20455 4.01262 -0.311515 9.15353 5.67089 -0.282195 
9.10853 6.92537 0.0551592 8.86172 7.83941 0.0193352 8.80176 8.63548 1.17568 
8.73316 8.70327 2.61515 9.07037 9.00885 4.10934 8.96573 8.85455 5.61207 
8.84229 8.74277 6.92635 8.70339 8.62239 8.02012 8.99572 1.37794 8.76954 
8.66081 2.56267 9.07776 8.94746 4.11905 8.93663 9.05064 5.63535 9.1801 
9.04643 6.91055 8.89435 8.62902 7.70173 8.87493 1.4498 0.430412 -0.186651 
2.74419 -0.0997737 -0.291963 4.35903 -0.0952566 -0.490383 5.76961 -0.0739928 -0.644765 
6.903 0.203988 -0.358621 7.87986 0.321617 -0.165405 1.51129 0.6571 8.87151 
2.53926 0.0265101 8.90663 4.34618 0.00309886 9.03501 5.9077 0.00354426 9.2247 
6.98169 0.366516 8.91953 8.01309 0.602037 8.99013 1.33013 8.58433 -0.323798 
2.53066 9.00505 -0.356696 4.31341 9.22494 -0.602652 5.84173 9.00962 -0.557331 
7.06603 8.79679 -0.418222 8.16604 8.68915 -0.0799985 1.59784 8.24443 8.90263 
2.64536 8.86769 9.07183 4.3399 8.83565 9.21172 5.78665 8.79628 9.19338 
7.02506 8.51841 9.13445 7.89751 8.46339 8.89097 -1.47825 0.0108134 4.84705 
-1.4686 6.01379 1.69352 -1.2967 6.0465 7.53811 -0.758217 0.618048 7.49312 
-1.0507 0.483187 1.70822 -0.756401 3.21908 8.40815 0.0202585 7.79253 8.38413 
-0.7979 7.92608 6.30399 -0.826997 3.24001 0.561496 -0.772933 7.91743 3.34204 
-0.115131 7.73539 0.67438 -1.94207 5.9073 4.85635 -1.9255 2.96116 3.20822 
-1.87959 3.02031 6.31895 -0.123517 0.685998 8.62689 -1.16586 0.158526 6.29863 
-1.3098 0.174595 3.29382 -0.365911 0.660353 0.437257 -1.03786 4.75555 8.30779 
-0.820549 6.08321 8.3927 -0.691221 7.02492 7.86468 -1.25352 7.06918 6.88145 
-0.463894 7.8515 7.38587 -1.19715 4.73472 0.693498 -0.85151 6.04308 0.601759 
-1.27723 7.02805 2.62962 -0.91468 7.01335 1.26901 -0.603528 7.97493 1.9218 
-0.962782 7.9746 4.8833 -1.45821 7.13795 4.14792 -1.67684 5.87458 3.25898 
-1.38027 7.02428 5.5592 -1.70748 5.94261 6.33888 -1.7229 4.60724 2.53437 
-1.68176 3.15145 1.68391 -0.837473 1.40001 0.943366 -1.23077 1.11807 2.6176 
-1.56596 0.889546 4.11867 -1.63288 4.60976 6.92003 -1.53397 3.09839 7.53068 
-1.51073 0.852035 5.62245 -1.29235 1.04746 6.85189 -0.717689 1.35285 8.24761 
-2.05907 2.91961 4.91034 -2.0053 4.48109 5.60063 -2.11745 4.45244 4.04477 
9.82634 0.230081 4.94723 10.1096 5.82623 1.78619 9.86086 5.82313 7.50461 
9.24837 0.833113 7.56378 9.43195 0.732032 1.62814 9.48407 3.07336 8.5184 
9.05191 7.65247 8.33158 9.56817 7.9352 6.3176 9.37879 3.13417 0.640628 
9.62009 7.98916 3.29116 9.00448 7.73132 0.771845 10.1696 5.81289 4.92919 
10.2687 2.89289 3.17074 10.0395 2.96069 6.35538 8.90028 1.068 8.37988 
9.50786 0.514424 6.19661 9.5999 0.45404 3.21355 8.81788 1.03562 0.603709 
9.65309 4.72889 8.27287 9.30625 6.01563 8.32425 9.50758 6.85122 7.94341 
9.69392 6.94544 6.93141 9.23395 7.78797 7.44579 9.96296 4.62699 0.824307 
9.41729 5.97321 0.724313 9.65065 6.89917 2.65763 9.65859 7.00116 1.24897 
9.3947 7.89755 1.90976 9.39663 8.02596 4.92825 10.0657 6.98789 4.05325 
10.2506 5.81171 3.27963 9.9701 7.0123 5.64485 10.1253 5.757 6.39597 
10.0057 4.41448 2.60727 10.0507 2.98932 1.79879 9.57416 1.53824 0.925608 
9.67332 1.336 2.60375 9.86674 1.13481 4.09091 9.92877 4.37814 6.96713 
9.5095 3.01499 7.44784 9.8368 1.09532 5.58214 9.62781 1.2303 6.92953 
9.22144 1.44043 7.99258 10.1117 2.87351 4.87684 10.3425 4.44408 5.51504 
10.3557 4.40658 4.12892 3.87773 -1.52703 1.52877 3.91937 -1.26477 7.50592 
8.81432 -1.11784 4.87205 8.56213 -0.315185 7.78133 8.40397 -0.356609 1.70926 
6.58923 -0.444548 8.4269 1.34961 -0.148675 8.34156 1.26013 -1.09929 6.24519 
6.48157 -0.627461 0.344991 1.19123 -1.17377 3.32531 1.3792 -0.233868 0.556902 
3.97695 -1.89524 4.91185 6.601 -1.7101 3.09006 6.61109 -1.54327 6.50127 
8.24432 0.551157 8.33107 8.61849 -0.569766 6.35574 8.81104 -1.12495 3.17323 
8.19509 0.238006 0.522227 5.26629 -0.987586 8.21091 3.81353 -0.847555 8.4635 
2.64617 -0.839069 7.89523 2.58745 -1.3598 6.87314 1.31216 -0.653766 7.49545 
5.24361 -1.10821 0.566755 3.86228 -0.838312 0.408922 2.45851 -1.51868 2.42698 
2.68184 -1.00726 1.06706 1.21769 -0.834914 1.71431 1.18581 -1.24999 4.8526 
2.57551 -1.73564 4.09365 3.93375 -1.87401 3.17884 2.56977 -1.72239 5.69649 
3.99253 -1.79436 6.42775 5.27629 -1.63111 2.3951 6.59491 -1.30008 1.47781 
7.85687 -0.564111 0.708944 7.90484 -1.17929 2.29873 7.91775 -1.18537 4.04558 
5.26192 -1.65063 7.00278 6.57654 -1.19597 7.60217 8.15875 -1.24922 5.75315 
8.19776 -0.957783 7.14082 7.94865 -0.358095 8.3801 6.68911 -1.87681 4.88552 
5.36166 -1.9404 5.70266 5.32453 -2.05656 4.05774 3.79185 10.0119 1.85168 
3.82191 9.80918 7.45185 8.57718 9.30364 4.88474 8.36627 8.95777 7.54093 
8.48964 9.13128 1.85499 6.59754 9.33494 8.58117 1.4117 8.96825 8.41941 
1.07695 9.38043 6.27394 6.62155 9.56808 0.489957 1.01342 9.26805 3.34017 
1.40713 8.89717 0.720677 3.78396 10.2612 4.84998 6.76929 9.91531 3.2976 
6.73766 9.89243 6.31958 8.22525 8.48922 8.43801 8.55598 9.36727 6.33698 
8.4781 9.23348 3.26073 8.10533 8.60832 0.755468 5.16117 9.47263 8.28684 
3.71207 9.569 8.54834 2.60982 9.2273 7.99809 2.36334 9.83039 6.89381 
1.21609 9.26287 7.41283 5.1862 9.66984 0.852763 3.67569 9.55042 0.616046 
2.31915 9.66483 2.66255 2.40393 9.4926 1.12175 1.15662 9.35723 1.96777 
0.900705 9.42288 4.85515 2.32902 10.014 4.15782 3.81469 9.95741 3.24678 
2.38537 9.83474 5.50304 3.83201 9.98867 6.29764 5.37347 10.1405 2.58281 
6.63683 9.75674 1.7961 7.79303 9.24933 0.917727 7.88999 9.55803 2.60073 
7.97469 9.63487 4.24016 5.34563 10.0592 7.03511 6.62196 9.52732 7.49485 
7.98524 9.49604 5.56743 7.86674 9.34793 6.95185 7.84095 9.06138 8.18436 
6.73747 10.0137 4.88208 5.32475 10.214 5.51275 5.33425 10.2226 4.20798 
1.72116 3.82207 -1.67787 7.50269 3.82554 -1.6836 5.02443 8.76292 -1.22805 
7.65061 8.21299 -0.577807 1.95383 8.19699 -0.744849 8.44057 6.44814 -0.83049 
8.24837 1.49311 -0.3375 6.37564 1.0671 -1.30251 0.564963 6.42913 -1.02691 
3.46487 1.15763 -1.35649 0.761952 1.28445 -0.610762 4.87989 3.92766 -2.20092 
3.25453 6.51592 -1.73611 6.44147 6.66069 -1.81657 8.47723 8.16129 -0.0628361 
6.52462 8.64554 -1.18343 3.4598 8.49027 -0.910352 0.902404 8.07651 -0.241445 
8.35094 5.11849 -1.32814 8.35063 3.66044 -0.938008 8.05997 2.45349 -1.24947 
6.83795 2.50609 -1.42389 7.39868 1.22998 -1.00804 0.850179 5.04602 -1.11681 
0.608218 3.6608 -1.09296 2.60177 2.42174 -1.70034 1.27438 2.53736 -1.12435 
1.95281 1.32293 -0.940143 4.99168 1.01968 -1.29691 4.19223 2.5051 -1.79388 
3.25231 3.87275 -1.86895 5.6296 2.43422 -1.91201 6.39183 3.84635 -2.00562 
2.49596 5.24912 -1.97799 1.7288 6.46833 -1.48546 1.10994 7.6674 -0.79296 
2.57143 7.87356 -1.44709 4.23887 8.05898 -1.55308 6.96658 5.28782 -1.78265 
7.58716 6.56328 -1.4942 5.77654 8.03597 -1.41216 7.08248 7.96162 -1.15631 
8.25165 7.79593 -0.603615 4.92691 6.67473 -1.97693 5.70104 5.28292 -2.0303 
4.06156 5.31533 -2.09435 1.93162 3.85665 10.0802 7.48549 3.77718 9.95626 
5.06 8.46826 9.86096 7.74 8.22894 9.57595 2.01349 8.25328 9.55582 
8.33246 6.43513 9.392 8.20921 1.59451 9.09997 6.42008 1.14109 9.71612 
0.730676 6.37797 9.31612 3.48483 1.18215 9.58829 1.0053 1.50703 9.3208 
4.84169 3.92033 10.3295 3.30465 6.6026 10.2553 6.50442 6.50348 10.2406 
8.42846 8.15774 9.11784 6.44543 8.45395 9.84708 3.39762 8.47626 9.8071 
1.06907 8.06272 9.14372 8.33956 5.1104 9.90294 8.44584 3.64377 9.61178 
7.99331 2.50543 9.71284 6.75426 2.47699 9.87858 7.46691 1.31105 9.55339 
0.905032 5.03951 9.78765 0.807783 3.59071 9.52735 2.71777 2.4301 9.72987 
1.35952 2.53451 9.77096 2.09243 1.25656 9.56061 4.94074 0.963467 9.58404 
4.17782 2.42022 10.235 3.23803 3.84682 10.3321 5.63106 2.42147 10.1545 
6.43829 3.89438 10.3933 2.5482 5.29297 10.0378 1.77589 6.49774 9.93096 
1.30205 7.53396 9.38103 2.73608 7.63274 9.66261 4.21613 7.76347 9.74533 
6.96778 5.23943 10.1305 7.53972 6.48701 10.0159 5.75952 7.71682 9.8276 
6.94662 7.72207 9.62247 8.146 7.51139 9.41357 4.99988 6.73442 10.1583 
5.64721 5.34269 10.4239 4.09059 5.33997 10.3849 
POLYGONS 709 2124
OFFSETS vtktypeint64
0 3 6 9 12 15 18 21 24 
27 30 33 36 39 42 45 48 51 
54 57 60 63 66 69 72 75 78 
81 84 87 90 93 96 99 102 105 
108 111 114 117 120 123 126 129 132 
135 138 141 144 147 150 153 156 159 
162 165 168 171 174 177 180 183 186 
189 192 195 198 201 204 207 210 213 
216 219 222 225 228 231 234 237 240 
243 246 249 252 255 258 261 264 267 
270 273 276 279 282 285 288 291 294 
297 300 303 306 309 312 315 318 321 
324 327 330 333 336 339 342 345 348 
351 354 357 360 363 366 369 372 375 
378 381 384 387 390 393 396 399 402 
405 408 411 414 417 420 423 426 429 
432 435 438 441 444 447 450 453 456 
459 462 465 468 471 474 477 480 483 
486 489 492 495 498 501 504 507 510 
513 516 519 522 525 528 531 534 537 
540 543 546 549 552 555 558 561 564 
567 570 573 576 579 582 585 588 591 
594 597 600 603 606 609 612 615 618 
621 624 627 630 633 636 639 642 645 
648 651 654 657 660 663 666 669 672 
675 678 681 684 687 690 693 696 699 
[...]
CELL_DATA 708
SCALARS scalars double
LOOKUP_TABLE default
-5.8569190732 -8.8084525468 -4.5446243222 -8.6218182162 -5.2879919487 -9.2899867588 -6.4291746753 -5.7201515838 -8.6189007259 
-5.4335632136 -8.6137815731 -5.8001561784 -9.2545847069 -4.9707429687 1.1172349185 0.63950655517 -0.78820827539 -1.0192099276 
1.5729524447 1.0741907525 3.4120567336 4.5499135373 5.8930684206 4.7093017743 2.6982480537 6.2126483911 6.6216802404 
7.445279913 7.5910551775 5.1419131347 3.6067037744 3.6687454153 3.9179396114 -1.4186305071 -1.0856632267 1.9267609691 
-1.5801606139 0.58115132237 1.781216098 3.9011051463 5.3844070548 5.1504800679 4.4029727997 6.4342801645 6.8345243391 
6.6323598564 7.8520112032 7.1259153346 4.3651346716 2.6749978336 2.9344752956 2.408087325 7.0284628589 3.378646662 
7.4459316279 7.2065486739 5.6977003664 6.1141792307 7.2543644577 2.7513652265 2.7840217901 2.5899386597 5.0255008086 
3.7545296196 2.3011447218 3.3993429756 4.0563560029 4.6835399652 5.8216968023 4.5102678632 0.10097341681 -1.4015050234 
0.59925376069 1.2733580075 -4.9917118494 -1.2537722921 -5.2281498383 -2.7077081016 1.615851524 -4.0064532622 -4.9545516847 
-0.83047574473 0.41474378259 -2.9360918288 -1.2159247808 -3.2417264606 0.47724560479 0.46659788505 -0.91773641121 0.94976150043 
-2.2786026974 -5.9452435824 -5.4459558319 -2.6418919122 -0.68959269895 -5.8343901803 -3.8835212956 -0.25864036606 1.1283535038 
-0.7275915151 -2.0339613991 -2.4047274662 -0.70620002226 -2.0910558065 -2.0511202427 -2.4675474449 0.48439565024 0.85024730937 
1.229322314 0.61930822349 0.16312471486 2.0792383353 1.0556143419 1.6802473828 0.80707749215 -0.82992539723 -0.22416541533 
0.025832338074 -0.95798982399 0.38232169563 -2.4937896619 -3.1760760205 -3.2490810924 -7.2565634146 -0.74297934939 -3.8416879478 
-5.0226642331 -3.3749887422 -4.7261950761 -2.3331281078 -0.34105789324 1.9038600158 2.0378655611 2.2795139931 -0.31803985869 
0.42762598515 0.73787353161 -1.5491968222 2.4214975121 3.8834591906 3.0486248884 3.717340534 5.3151207943 4.9885150287 
4.4826707353 4.3398428802 3.9610920022 4.0336455261 0.50739692118 2.9806977627 -0.17414240312 -1.7215368046 0.30895044793 
2.9518312035 -2.8522479209 0.35341506678 3.3317913305 3.7092387065 1.2496867755 4.9048816839 2.6555537042 6.2442359558 
3.5078588597 3.3719581372 6.3074056072 7.0606491369 4.5531370409 0.76897359306 0.003943287618 1.1022306286 4.5636304531 
2.5261880521 5.0687553438 6.0928496379 1.9535377883 3.9812416181 3.9013982331 4.4613588791 1.23900119 3.3090193509 
2.5351517066 1.4343805216 2.4827747336 2.4590198081 1.3035974229 4.469048484 4.7210021661 5.1505758417 -0.935763787 
-2.5871967174 1.149947303 0.42290670645 -2.1349499667 -4.7648248818 -3.9791117682 -3.0014277846 -7.6487883383 -2.8296295655 
-3.4493208997 -1.8548993027 -2.458319739 -2.9731846442 0.16663907308 -2.6239236181 -0.34195581295 -1.1952410537 -0.97277320294 
-2.0145840703 -1.7503485929 -3.7283065979 -1.814140585 -3.3636252954 -3.2422768545 0.27659421324 -2.3379880942 -5.7256417723 
-5.1088717652 -1.6893279734 -0.67834665513 -0.44136025081 -0.26300455411 -1.3076481176 -1.7793108609 -1.4654355033 -0.42318966843 
-0.41464730705 1.4005721007 -0.24057513972 0.85321107829 1.037235204 -1.27604173 -0.62690952569 1.2784186884 -1.1368307731 
-1.6819398577 -1.5076534289 -7.3099581096 -7.5925445756 -7.6728333249 -8.5218286807 -6.9251424879 -4.8249736211 -7.2517510747 
-7.3724844852 -3.9354107906 -6.7194443143 -8.4894342568 -3.6735343074 -8.1621001174 -7.9528755026 -5.3824590978 -9.1737299164 
-5.9087617607 -6.0940223111 -7.6264819675 -5.2716373478 -6.8396324087 -8.7681100788 -8.2274261148 -8.8499820217 -8.5584251323 
-8.7047489032 -7.5591832209 -7.4618569698 -7.7135524081 -4.7512541132 -9.0772546805 -7.5605971271 -7.4046901431 -5.3848428507 
-7.0170273632 -6.9199336227 -8.476345058 -7.86415867 -7.4582406299 -7.4928437329 -8.9402587407 -9.0207092719 -8.2676606482 
-8.8543507921 -8.6430762656 -7.340036291 -6.5822230013 -7.1228591435 -7.4192938126 -8.6404216275 -7.9742525539 -8.4090599799 
-8.1224875202 -7.4659742962 -6.869700405 -8.9365462769 -8.8330872684 -9.4000465581 -9.0740608114 -8.8919086457 -9.7091755692 
-9.9414166369 -9.7750360027 -9.0652466097 -9.9414650885 -8.9244416692 -9.3606292347 -9.9302690683 -9.1503060245 -9.3449834404 
-9.4511838743 -9.5622480621 -8.2676790293 -9.6660825127 -9.6004445211 -6.8824721005 -8.1539709268 -9.2743679175 -4.3385447331 
-6.1498146146 -7.5335364278 -9.9796438654 -6.3234669296 -9.4123891799 -8.3878445788 -8.8589223183 -8.7431062651 -9.3528560462 
-7.2707943855 -8.7370698804 -9.4343940065 -7.0724430959 -7.0863702599 -6.2140504738 -5.4026940897 0.09912221442 -7.3743967273 
-8.6914586423 -2.7464004395 -7.379176519 -9.2793877805 -8.4888954508 -9.906433539 -9.379166037 -8.9551792233 -8.9393201158 
-9.6069122627 -8.9604151302 -9.952484767 -9.7579705066 -9.6567643923 -9.9217636689 -9.7669693468 -9.6813887305 -9.946990908 
-9.7680952966 -9.6278333064 -9.9364816972 8.416571499 5.8372390684 7.1245395902 5.0733472474 8.1998656531 7.5528729144 
8.0465771743 8.6871290213 6.7868411199 6.9390816793 5.1639965112 4.2085047494 8.8543430138 9.3921941981 7.5318973761 
9.6923276131 7.3630242668 6.1327739185 7.8289923377 6.457675603 8.1079898356 8.4590182009 9.4941203914 9.1125231976 
8.4329028569 8.5935246547 6.8488373432 7.352365853 6.780520767 4.3902244328 9.1609936453 9.4331259797 8.5793274008 
5.0952043764 7.931370033 7.8736359595 9.3721486243 8.9581008898 9.2014300663 9.6116227572 9.4894363199 9.6099747168 
8.5214679811 9.7514301038 8.8114238438 7.7997909942 8.523018028 8.5336826732 7.5699906701 8.4629534318 8.6471695541 
9.2782114567 9.3138886441 9.2945557292 9.1184140375 8.17186505 8.4041004462 9.0069704505 9.0270693396 8.2781456492 
9.7736209962 9.7928756463 9.6893279388 9.4425779087 9.6053915423 9.872151133 9.9430337963 9.6350346919 9.5391714682 
8.9421072482 9.3716431399 9.6270626122 9.8910271881 9.6825696813 9.5457284331 8.8372011466 7.7412704824 9.6112631656 
4.1376815799 6.7162441007 8.6897226667 8.3973560515 8.9533959389 9.6508724788 9.4138572234 9.4393223895 9.0690471405 
9.1210987949 9.8277767997 8.7413209131 9.1962423555 8.0163532741 8.4307096609 9.9105114651 6.4490112219 5.9152378121 
8.7581522951 6.5319059657 6.2574110188 9.4864700418 9.1265424741 9.457999395 9.1087991359 9.3538539777 9.6232416647 
9.3691512998 9.810183013 9.8119597848 9.8119265913 9.9015379117 9.8232630018 9.809471552 9.9421132253 9.8887907638 
9.9959268916 9.8306589013 9.8090187736 9.8959048888 5.0236711624 4.3510056582 5.09385657 9.2562920146 5.8997192916 
8.6448669617 5.1715248316 6.1914096429 5.5086178004 6.2013385305 5.4207750133 4.6135188755 7.8600365284 4.7765281169 
1.6157099662 -2.020593429 -2.0045390878 2.0270489426 1.9837346857 -0.88577888042 0.35078391545 -2.5235705356 -4.6429449298 
-1.7488386462 -2.570168031 -6.1050731151 -5.9625709831 -2.7311190686 -3.0600398716 -3.2927075196 0.33052799044 -4.5025546207 
0.056306181358 -2.7417132129 2.5628336547 4.0563629815 0.67275207809 -0.67397081496 0.74191231473 0.77416000151 -2.3986530892 
-4.2692709272 -2.7905583755 -3.5104490871 -6.1100154142 -5.6205516991 -3.9966266399 -6.5109863089 -5.2248955193 -5.2231589585 
-1.8272498537 -2.2859265334 -2.3144307196 -1.0728094505 -4.2329294889 -5.0483667074 -5.9700208162 -2.8831211245 -5.7834800993 
-5.5299269685 -0.60596515367 -1.8384632541 -0.91480836082 -1.9752217438 -1.3008836514 -3.1062550654 -2.6130334479 -2.3301534572 
-4.0257586527 -3.1301403795 -3.6103201181 0.69629634927 -0.15019241934 2.7894912734 0.61103764273 0.86774728639 4.8853212168 
1.6829894492 7.3260911189 6.9234036015 6.2137842772 7.4742094564 6.6557125188 1.2543593027 3.2252028668 2.7825935759 
0.52179528726 0.82064060133 2.393725084 0.59309354593 3.6379222619 6.3967603583 6.0553248951 1.2255953055 2.1206953885 
4.0315799887 6.2422531684 5.9789404262 5.4016376416 2.1396659398 3.2023448111 3.5783160483 3.3195453325 3.2592779122 
2.1583456405 3.3263775743 0.49076732811 0.37240107284 0.45684536444 0.75136779144 2.3401807733 -0.41750668805 -1.4264813413 
-1.1626032236 1.0041724729 1.8387109748 0.96731819566 0.60586253096 4.0563229314 8.7461514874 3.0681238411 9.3772967259 
4.2999672436 8.8380997698 9.2290000154 3.7401680485 8.7213165695 4.3304860575 7.9005002278 4.7911016577 2.1473184062 
8.5364909136 3.5055508107 -1.6307190197 -0.53941519037 1.9442289579 3.0030318457 -1.0380202969 -1.533909878 -1.3425293987 
-3.5430695093 -1.6238599335 -1.8911469043 -6.1853377445 -5.8276950741 -1.8120242334 -2.0027354076 -1.4197381803 -0.48061020416 
-2.9757071225 -2.0957052293 -2.4645384545 1.5580258653 1.4043887336 -1.3431486778 2.4867457829 1.1223790432 -1.4583460217 
-2.3249827675 -1.2880833026 -3.0604720786 -1.5221871268 -4.6452942789 -5.7942180382 -2.1822242552 -5.0088954182 -5.3614515048 
-4.8117738658 -2.9224169201 -0.21081236926 0.48997785017 0.022723799029 -4.8422255997 -3.8240634436 -5.0754695326 -2.954454893 
-4.635851997 -4.4215186493 -3.276156239 -0.64908265991 -2.7033054685 -1.7677919742 -1.3756019726 -2.5017659252 -2.8306447108 
-0.87104237383 -3.4670375143 -4.343219434 -3.8487565629 0.99748484064 2.2498593356 -0.44359811787 -0.080349311522 5.4839402094 
5.7888081919 4.5891730191 0.092902844036 3.1933424312 4.3623635461 -1.355591738 -0.5133813725 3.9433326811 2.07081217 
3.8484566346 -0.61617140431 -0.073735201896 2.8973047195 0.14958941167 4.0187507866 4.4748350984 5.2103825516 -1.8212425347 
0.7594302853 4.5461664908 -1.3892728135 3.3022196997 -0.23845317657 0.9171065516 3.8388137436 3.9191755962 -0.96146804093 
3.2081655443 3.8715755164 3.4611766531 -0.056524304357 0.27408276011 -0.43246880798 1.0146796346 -0.35833564393 -0.37247416342 
1.0930999314 0.92024866009 -0.52125792848 1.3061393775 1.752661691 1.7615862488 
