# vtk DataFile Version 5.1
vtk output
ASCII
DATASET POLYDATA
POINTS 254 float
-3.32814 -4.03977 -3.59743 -1.49797 -1.37671 9.11257 -1.47586 8.95609 -1.37524 
-0.0522688 8.47181 10.3412 11.4948 -2.28329 -3.21162 10.4858 -1.94 11.1501 
12.0252 11.1802 -3.4855 11.9655 13.2774 11.3153 -4.36904 -4.51983 -0.561241 
-4.85294 -4.25675 2.28666 -5.31037 -3.15725 4.77899 -4.01908 -2.04214 6.74207 
-4.10547 -0.668908 -4.26186 -3.73464 1.81816 -4.76012 -3.48512 4.74183 -3.83093 
-2.12317 6.60718 -2.87132 -1.46529 8.59687 1.54759 -1.8258 9.56428 3.94877 
-1.58411 9.50048 6.43808 -0.961774 8.64807 8.43613 -2.37938 0.870728 10.391 
-3.48675 3.10364 12.3138 -2.68672 6.1879 12.4573 -1.66175 7.52865 11.9155 
11.2698 -2.4259 0.450241 11.5399 -3.12857 3.43447 12.1124 -2.90294 6.23026 
11.2703 -3.38817 8.39074 13.7647 -0.339132 -4.1366 14.8973 3.00132 -6.1458 
14.899 7.1508 -5.40439 13.5082 10.1927 -4.87844 12.5672 12.8193 -0.453129 
12.5972 13.3546 2.96146 11.7979 14.2855 5.87823 11.7968 14.2181 8.74094 
12.3548 0.345011 11.3967 13.0518 3.73062 12.0599 13.4721 7.28826 12.4681 
12.363 10.7567 12.2993 -0.612052 -5.27741 -4.92626 2.95963 -5.83129 -5.07464 
6.22895 -4.68812 -4.77454 8.80459 -3.66049 -3.68723 0.611089 -5.67636 9.76544 
4.18062 -3.09723 12.234 6.6817 -3.52462 12.7115 8.64452 -2.65378 12.154 
0.00338128 10.8638 -3.38689 2.7517 12.105 -4.23291 6.33508 11.7807 -4.75109 
9.14493 11.4377 -4.52374 2.4533 9.11392 11.9265 4.90171 10.7491 13.6823 
13.5325 0.43216 22.4675 9.02032 13.2718 13.3691 -4.56456 3.29552 -0.103765 
-3.97462 4.90469 9.64477 -2.68405 8.0236 7.48495 -3.29511 6.97929 2.84732 
-5.66597 4.20807 5.05591 -5.75811 -0.249552 1.64164 -5.78157 1.27648 7.35772 
-3.9871 3.53305 10.6781 -2.67264 6.9338 10.2773 -3.26283 6.24747 8.39408 
-2.31066 7.77585 9.29744 -5.04026 2.10407 -2.14177 -4.32473 4.91121 1.60674 
-3.35219 5.3533 -1.0753 -2.53613 6.9572 0.431653 -2.32485 7.69002 5.06881 
-4.52986 5.69022 4.48064 -5.69216 3.64357 2.63849 -2.83181 5.95999 6.31935 
-3.97919 4.34928 7.06305 -5.97442 1.32329 0.723985 -5.95111 -0.286915 -1.4164 
-5.16895 -2.16585 -1.87301 -5.49092 -2.42447 0.909669 -5.58599 -2.09553 3.24653 
-5.66019 3.40753 7.9597 -5.87402 1.24231 9.44997 -5.12456 -0.132718 5.28282 
-5.59802 -0.471259 6.99717 -3.95348 -0.0582376 8.56457 -4.91908 0.948907 3.91812 
-4.96083 3.16154 6.19285 -5.24533 2.64199 3.06854 16.3296 7.10332 -1.57252 
15.095 7.4969 8.96489 13.2145 12.5805 7.13086 13.9709 12.2315 1.7639 
16.2273 7.70927 3.95998 15.6665 1.69306 1.21772 15.2222 1.6945 7.19547 
14.4141 4.74195 10.3971 13.4375 9.76555 10.4328 13.9786 10.815 7.71003 
13.2547 12.142 9.56624 16.1429 4.50281 -3.24684 14.9407 10.4103 0.452101 
14.8108 9.1803 -2.46294 13.7927 11.7863 -1.76329 13.679 12.6862 4.83933 
14.7114 10.6857 3.46732 16.5377 7.24841 1.54028 14.6901 11.0716 5.44151 
15.7592 7.36812 6.51309 16.2105 4.15395 -0.476962 15.604 1.62216 -2.03161 
13.4242 -1.07419 -1.4739 13.395 -1.2218 1.25419 14.3124 -1.41123 3.49751 
15.394 3.87679 8.06983 13.9728 0.823099 9.88957 14.0315 -0.841411 5.94861 
13.3191 -1.03007 8.00418 11.7663 -0.73568 9.34029 15.8039 1.23193 4.41718 
16.4414 4.16728 5.54183 16.4383 4.11658 2.70001 2.74685 -6.54808 -1.47908 
2.34663 -4.40317 9.48814 -2.76351 -5.10382 4.71138 -3.129 -6.10386 0.859504 
2.03782 -6.98778 4.04074 7.26876 -5.81223 1.7373 6.49781 -5.99679 7.96879 
5.32623 -4.79353 11.0456 -0.839009 2.56346 14.2276 -0.547437 -5.34216 7.81169 
-2.08891 -3.11774 7.01094 5.21063 -6.42221 -2.54265 -0.067778 -6.72837 0.0574795 
0.753197 -6.16492 -2.6378 -2.27968 -6.03159 -1.90794 -3.23114 -5.51651 2.81192 
-0.508589 -6.82972 2.2252 2.20032 -7.23061 1.4381 -0.388928 -6.14866 4.69892 
2.05921 -6.07689 7.08138 5.03168 -6.116 0.15863 7.31743 -5.77144 -1.81132 
9.73319 -3.92182 -1.48814 9.38554 -4.49174 1.11854 10.1228 -5.26765 4.03042 
4.72471 -6.02647 8.6278 7.24171 -4.99326 11.008 8.80044 -5.02106 6.39218 
9.14172 -4.4077 8.73935 9.50145 -3.53056 10.7398 6.79506 -5.99338 4.75533 
4.22987 -6.57907 6.15645 3.9535 -6.26237 2.99828 3.77591 13.043 -0.882271 
3.87844 12.609 11.6276 0.0596706 10.8142 7.75867 -0.237451 10.7879 2.35233 
3.26216 13.7768 4.69135 8.14039 14.5075 1.36262 7.30523 14.6516 7.61779 
5.8333 12.6992 13.3859 3.07586 10.8765 11.8221 1.54349 12.4438 9.52945 
1.57105 9.70234 10.305 5.37172 12.8166 -2.67251 1.6821 11.6167 1.51709 
1.67579 11.5791 -1.18783 -0.541636 10.2413 -0.0508952 -0.60904 11.3375 5.32821 
1.17644 12.3876 4.01253 3.91126 13.2313 1.68162 1.23705 12.8868 6.985 
3.28008 13.4508 8.45012 6.23074 13.481 0.0141475 7.71353 12.7188 -2.2429 
9.98232 11.708 -1.92627 10.4959 13.3532 0.533652 10.343 14.8731 3.38597 
5.40837 13.6265 9.78069 7.39014 14.0008 13.1023 8.76302 14.9419 6.05994 
9.11366 15.3548 8.96435 9.63412 14.3412 11.308 7.77048 14.9119 3.96451 
5.3526 13.723 5.89469 6.14129 13.7179 2.77132 -1.41216 2.1788 -7.78823 
11.5308 3.08584 -8.66007 7.62469 -2.63979 -6.89752 1.48677 -3.50106 -7.17597 
4.6763 2.35734 -9.592 1.54239 7.49983 -7.75827 8.66274 7.21355 -8.42894 
12.7968 5.59929 -7.58723 12.1284 0.762593 -6.61273 9.17395 0.199621 -8.27294 
10.6082 -1.61947 -5.63662 -2.27084 4.16815 -6.47715 -0.0269398 -0.644905 -7.85867 
-2.14868 0.0183535 -6.26968 -1.70202 -2.83658 -6.01482 4.48878 -3.57294 -7.63229 
3.20786 -0.630131 -8.49511 1.60207 2.25013 -9.07463 6.5747 -0.623763 -8.88712 
8.25231 2.18679 -9.55396 0.327812 4.6271 -8.19609 -1.10261 6.80316 -6.21237 
-0.728101 8.63113 -4.32988 0.693984 9.56528 -5.77436 3.36826 10.1279 -7.1615 
10.4418 5.40536 -8.82505 12.1618 8.0538 -7.31158 6.43721 9.84904 -7.29852 
9.34817 10.1382 -6.46393 11.5648 10.7796 -6.02968 4.73343 7.47088 -8.83426 
6.83327 4.92813 -9.68474 3.23559 4.94985 -9.34125 -0.928 3.61126 13.6613 
10.1363 4.5147 12.9951 7.60218 -1.06374 13.4046 2.4841 -1.50242 12.2461 
4.85586 3.88505 14.4265 1.19295 8.26604 13.8649 8.28171 9.6917 14.2484 
11.6563 6.39776 13.3587 10.9994 1.95295 12.2592 8.82343 1.49858 13.5425 
10.2759 -0.406171 12.505 -1.60059 5.78759 13.4062 1.60157 1.42151 13.2747 
-0.844626 1.57995 12.4571 0.301601 -0.485294 10.756 5.34202 -1.30406 13.4626 
3.52611 0.837773 14.1548 2.16171 3.36622 14.4667 6.04087 1.56065 14.1108 
7.89736 4.15315 14.3853 0.444303 6.1104 14.512 -0.427752 7.43915 14.1604 
0.562335 8.27284 13.1889 3.53111 0.939497 9.28564 3.21828 9.5415 14.023 
9.88503 7.02964 14.152 11.3917 9.66322 13.3959 6.06257 11.5796 14.2413 
8.4157 12.1936 14.1021 10.4235 11.975 12.756 5.10373 8.50425 14.4082 
6.91702 6.79875 15.3532 3.57099 5.98636 14.5844 
POLYGONS 505 1512
OFFSETS vtktypeint64
0 3 6 9 12 15 18 21 24 
27 30 33 36 39 42 45 48 51 
54 57 60 63 66 69 72 75 78 
81 84 87 90 93 96 99 102 105 
108 111 114 117 120 123 126 129 132 
135 138 141 144 147 150 153 156 159 
162 165 168 171 174 177 180 183 186 
189 192 195 198 201 204 207 210 213 
216 219 222 225 228 231 234 237 240 
243 246 249 252 255 258 261 264 267 
270 273 276 279 282 285 288 291 294 
297 300 303 306 309 312 315 318 321 
324 327 330 333 336 339 342 345 348 
351 354 357 360 363 366 369 372 375 
378 381 384 387 390 393 396 399 402 
405 408 411 414 417 420 423 426 429 
432 435 438 441 444 447 450 453 456 
459 462 465 468 471 474 477 480 483 
486 489 492 495 498 501 504 507 510 
513 516 519 522 525 528 531 534 537 
540 543 546 549 552 555 558 561 564 
567 570 573 576 579 582 585 588 591 
594 597 600 603 606 609 612 615 618 
621 624 627 630 633 636 639 642 645 
648 651 654 657 660 663 666 669 672 
675 678 681 684 687 690 693 696 699 
702 705 708 711 714 717 720 723 726 
729 732 735 738 741 744 747 750 753 
756 759 762 765 768 771 774 777 780 
783 786 789 792 795 798 801 804 807 
810 813 816 819 822 825 828 831 834 
837 840 843 846 849 852 855 858 861 
864 867 870 873 876 879 882 885 888 
891 894 897 900 903 906 909 912 915 
918 921 924 927 930 933 936 939 942 
945 948 951 954 957 960 963 966 969 
972 975 978 981 984 987 990 993 996 
999 1002 1005 1008 1011 1014 1017 1020 1023 
1026 1029 1032 1035 1038 1041 1044 1047 1050 
1053 1056 1059 1062 1065 1068 1071 1074 1077 
1080 1083 1086 1089 1092 1095 1098 1101 1104 
1107 1110 1113 1116 1119 1122 1125 1128 1131 
1134 1137 1140 1143 1146 1149 1152 1155 1158 
1161 1164 1167 1170 1173 1176 1179 1182 1185 
1188 1191 1194 1197 1200 1203 1206 1209 1212 
1215 1218 1221 1224 1227 1230 1233 1236 1239 
1242 1245 1248 1251 1254 1257 1260 1263 1266 
1269 1272 1275 1278 1281 1284 1287 1290 1293 
1296 1299 1302 1305 1308 1311 1314 1317 1320 
1323 1326 1329 1332 1335 1338 1341 1344 1347 
1350 1353 1356 1359 1362 1365 1368 1371 1374 
1377 1380 1383 1386 1389 1392 1395 1398 1401 
1404 1407 1410 1413 1416 1419 1422 1425 1428 
1431 1434 1437 1440 1443 1446 1449 1452 1455 
1458 1461 1464 1467 1470 1473 1476 1479 1482 
1485 1488 1491 1494 1497 1500 1503 1506 1509 
1512 
CONNECTIVITY vtktypeint64
20 21 82 22 63 21 65 57 64 
58 65 66 64 66 65 23 3 66 
19 18 58 3 19 66 66 19 58 
22 23 64 64 23 66 63 22 57 
57 22 64 67 13 77 14 13 67 
69 56 68 70 68 59 69 70 15 
68 70 69 16 2 70 70 59 16 
17 16 59 2 15 70 15 14 69 
56 14 67 69 14 56 71 17 59 
58 18 71 71 18 17 72 59 68 
73 68 56 60 72 73 68 73 72 
65 58 74 75 74 60 57 65 75 
74 75 65 72 60 74 71 74 58 
59 72 71 74 71 72 76 56 67 
61 76 77 67 77 76 13 12 77 
12 0 78 80 61 79 79 9 80 
8 78 0 9 79 8 78 8 79 
77 79 61 78 77 12 79 77 78 
63 57 81 82 81 62 63 82 21 
81 82 63 84 62 83 10 84 83 
80 10 83 84 10 11 1 20 85 
85 20 82 11 85 84 85 11 1 
62 84 82 85 82 84 10 80 9 
86 83 62 61 80 86 83 86 80 
87 62 81 75 81 57 60 87 75 
81 75 87 76 61 88 73 88 60 
56 76 73 88 73 76 87 60 88 
86 88 61 62 87 86 88 86 87 
36 115 37 38 37 96 98 97 90 
91 99 98 97 98 99 39 99 7 
35 91 34 7 99 35 99 91 35 
38 97 39 97 99 39 96 90 38 
90 97 38 100 110 29 30 100 29 
102 101 89 103 92 101 102 31 103 
101 102 103 32 103 6 103 32 92 
33 92 32 6 103 31 31 102 30 
89 100 30 102 89 30 104 92 33 
91 104 34 104 33 34 105 101 92 
106 89 101 93 106 105 101 105 106 
98 107 91 108 93 107 90 108 98 
107 98 108 105 107 93 104 91 107 
92 104 105 107 105 104 109 100 89 
94 110 109 100 109 110 29 110 28 
28 111 4 113 112 94 112 113 25 
24 4 111 25 24 112 111 112 24 
110 94 112 111 28 110 112 111 110 
96 114 90 115 95 114 96 37 115 
114 96 115 117 116 95 26 116 117 
113 116 26 117 27 26 5 118 36 
118 115 36 27 117 118 118 5 27 
95 115 117 118 117 115 26 25 113 
119 95 116 94 119 113 116 113 119 
120 114 95 108 90 114 93 108 120 
114 120 108 109 121 94 106 93 121 
89 106 109 121 109 106 120 121 93 
119 94 121 95 119 120 121 120 119 
47 46 148 45 129 46 131 123 130 
124 131 132 130 132 131 44 1 132 
11 10 124 1 11 132 132 11 124 
45 44 130 130 44 132 129 45 123 
123 45 130 133 42 143 41 42 133 
135 122 134 136 134 125 135 136 40 
134 136 135 8 0 136 136 125 8 
9 8 125 0 40 136 40 41 135 
122 41 133 135 41 122 137 9 125 
124 10 137 137 10 9 138 125 134 
139 134 122 126 138 139 134 139 138 
131 124 140 141 140 126 123 131 141 
140 141 131 138 126 140 137 140 124 
125 138 137 140 137 138 142 122 133 
127 142 143 133 143 142 42 43 143 
43 4 144 146 127 145 145 25 146 
24 144 4 25 145 24 144 24 145 
143 145 127 144 143 43 145 143 144 
129 123 147 148 147 128 129 148 46 
147 148 129 150 128 149 26 150 149 
146 26 149 150 26 27 5 47 151 
151 47 148 151 27 5 27 151 150 
128 150 148 151 148 150 26 146 25 
152 149 128 127 146 152 149 152 146 
153 128 147 141 147 123 126 153 141 
147 141 153 142 127 154 139 154 126 
122 142 139 154 139 142 153 126 154 
152 154 127 128 153 152 154 152 153 
55 181 54 53 54 162 164 163 156 
157 165 164 163 164 165 52 165 3 
19 157 18 3 165 19 165 157 19 
53 163 52 163 165 52 162 156 53 
156 163 53 166 176 50 49 166 50 
168 167 155 169 158 167 168 48 169 
167 168 169 16 169 2 169 16 158 
17 158 16 2 169 48 48 168 49 
155 166 49 168 155 49 170 158 17 
157 170 18 170 17 18 171 167 158 
172 155 167 159 172 171 167 171 172 
164 173 157 174 159 173 156 174 164 
173 164 174 171 173 159 170 157 173 
158 170 171 173 171 170 175 166 155 
160 176 175 166 175 176 50 176 51 
51 177 6 179 178 160 178 179 33 
32 6 177 33 32 178 177 178 32 
176 160 178 177 51 176 178 177 176 
162 180 156 181 161 180 162 54 181 
180 162 181 183 182 161 34 182 183 
179 182 34 183 35 34 7 184 55 
184 181 55 184 7 35 35 183 184 
161 181 183 184 183 181 34 33 179 
185 161 182 160 185 179 182 179 185 
186 180 161 174 156 180 159 174 186 
180 186 174 175 187 160 172 159 187 
155 172 175 187 175 172 186 187 159 
185 160 187 161 185 186 187 186 185 
31 30 214 29 195 30 197 189 196 
190 197 198 196 198 197 28 4 198 
43 42 190 4 43 198 198 43 190 
29 28 196 196 28 198 195 29 189 
189 29 196 199 14 209 13 14 199 
201 188 200 202 200 191 201 202 12 
200 202 201 40 0 202 202 191 40 
41 40 191 0 12 202 12 13 201 
188 13 199 201 13 188 203 41 191 
190 42 203 203 42 41 204 191 200 
205 200 188 192 204 205 200 205 204 
197 190 206 207 206 192 189 197 207 
206 207 197 204 192 206 203 206 190 
191 204 203 206 203 204 208 188 199 
193 208 209 199 209 208 14 15 209 
15 2 210 212 193 211 211 49 212 
48 210 2 49 211 48 210 48 211 
209 211 193 210 209 15 211 209 210 
195 189 213 214 213 194 195 214 30 
213 214 195 216 194 215 50 216 215 
212 50 215 216 50 51 6 31 217 
217 31 214 217 51 6 51 217 216 
194 216 214 217 214 216 50 212 49 
218 215 194 193 212 218 215 218 212 
219 194 213 207 213 189 192 219 207 
213 207 219 208 193 220 205 220 192 
188 208 205 220 205 208 219 192 220 
218 220 193 194 219 218 220 218 219 
39 247 38 37 38 228 230 229 222 
223 231 230 229 230 231 36 231 5 
47 223 46 5 231 47 231 223 47 
37 229 36 229 231 36 228 222 37 
222 229 37 232 242 22 21 232 22 
234 233 221 235 224 233 234 20 235 
233 234 235 44 235 1 235 44 224 
45 224 44 1 235 20 20 234 21 
221 232 21 234 221 21 236 224 45 
223 236 46 236 45 46 237 233 224 
238 221 233 225 238 237 233 237 238 
230 239 223 240 225 239 222 240 230 
239 230 240 237 239 225 236 223 239 
224 236 237 239 237 236 241 232 221 
226 242 241 232 241 242 22 242 23 
23 243 3 245 244 226 244 245 53 
52 3 243 53 52 244 243 244 52 
242 226 244 243 23 242 244 243 242 
228 246 222 247 227 246 228 38 247 
246 228 247 249 248 227 54 248 249 
245 248 54 249 55 54 7 250 39 
250 247 39 250 7 55 55 249 250 
227 247 249 250 249 247 54 53 245 
251 227 248 226 251 245 248 245 251 
252 246 227 240 222 246 225 240 252 
246 252 240 241 253 226 238 225 253 
221 238 241 253 241 238 252 253 225 
251 226 253 227 251 252 253 252 251 

CELL_DATA 504
SCALARS scalars double
LOOKUP_TABLE default
-7.0037510378 2.2154048439 5.2151454128 4.0869226692 4.850067948 9.1474968486 7.1673547726 8.779688244 8.7663841877 
6.4664666373 6.0894330266 2.4222828381 4.9594340042 1.9328790805 2.1814277284 3.9931242588 5.4920929131 5.6353905857 
5.8164580483 5.1361664317 6.388132509 5.70243908 3.517930589 6.1976105772 4.7240024595 4.8351059139 3.9078088955 
4.9369000479 3.1124803981 5.3116861308 5.1698143752 5.7259881818 6.2532307544 1.9564623993 6.4600641884 4.03541562 
4.8642244138 6.4516527678 1.6403867633 7.3083900452 5.6200282685 5.4240500506 -0.99292449589 2.8632309645 0.15631853966 
-2.8854009851 -1.1380833098 -3.2403702661 -4.7094563408 -4.0376837071 -3.8826608878 -1.4290042142 -2.2227648788 -3.5139618117 
3.655677735 0.68892213889 4.6540933778 3.9938620256 -0.44352128673 1.0026891331 0.27661909185 -5.8848384846 -5.6841301986 
-7.6441151457 -5.859374738 -5.9074698322 -0.95051281543 -7.9777360802 -3.0492371192 -1.0907102291 1.481726626 2.0990738382 
1.598721846 8.163586749 1.6896496998 7.3396504572 0.31712941795 -3.7064097846 4.2147717167 -2.2358422027 -4.3262063542 
-0.057504988492 2.4737338552 -1.3360792992 -2.7334040028 -1.6045321345 4.1018012672 4.1284182484 1.6567310199 3.0220248798 
6.4569760527 6.1111183505 5.9697526374 3.0065251747 2.1420769479 -0.059078072667 3.4935730451 -2.7996737676 0.75827215677 
5.0027513858 5.2730070063 4.1490951124 4.042078854 8.4932983904 8.2288722676 8.2116176097 8.7468867804 4.38754719 
1.5491500238 4.7462501935 7.9822049389 7.0138615294 7.8066387311 4.5512328732 4.2727587244 4.572164396 4.5773902239 
4.6181639983 3.2727838029 3.8540345663 3.4643024518 4.4237163839 5.7074799369 4.4844892448 5.0446675642 -0.51748428172 
-2.2492074708 -2.0382554573 -4.625607679 -7.7922806835 -5.7849191649 -8.1390273037 -8.4721936798 -8.0346293651 -8.6253565852 
-6.1468870955 -6.3644111695 -6.3170509974 -0.21760694498 -2.1330043498 -1.6416220056 -1.5598484311 -5.0688193006 -6.542335032 
-6.4528227601 -6.3369811207 -6.3632468535 -8.1505223882 -3.6972901802 -3.0623105279 -5.1448162977 -7.2399680567 -8.4906140731 
-5.1135386971 -4.6099812563 -5.3607077172 -2.131376431 0.15263935964 1.4669700111 0.7752161109 -2.6237650104 0.1460544224 
-0.63817741878 -0.58284326301 0.59364523792 -2.585415934 -2.9371148053 -2.1323190205 -5.962552967 -6.6264849347 -6.1779966804 
-3.473841074 -3.9403709661 -3.2146390783 -6.1431767359 -6.2729896093 -6.1476907593 4.9427378847 3.8187609443 -6.9194553448 
-6.3324424691 -8.0297144438 -8.1259332539 -9.7344937886 -9.7042558371 -9.4728578802 -9.6765647423 -6.4622370846 -7.1656562634 
-6.5212534444 -6.9009009703 -9.4875626763 -9.7969518972 -9.7732211187 -7.4444159417 -7.6024777923 -7.38629786 -9.7088883713 
-9.6847226307 -9.8894276415 -9.8239663573 -8.9494020742 -9.2824885112 -8.15193648 -9.5056451143 -9.3060311086 -8.7778546404 
-8.9228277537 -8.8994188903 -9.8770819326 -9.8995197452 -9.5935361531 -7.4613278531 -8.2682124072 -8.4080175946 -5.8333375528 
-7.2525831438 -6.9534632678 -6.8208573698 -8.4877435726 -7.2438120146 -7.8494392618 -7.9112152746 -9.5100820046 -7.6651593303 
-8.7936378425 -8.6600117809 -8.3118009505 -7.748896534 -9.0360101849 -5.1272442935 -5.9839354139 -5.4764681625 -8.4413126871 
-8.6569601469 -7.9852615749 -5.7131804432 -9.1074039589 -9.778718437 -9.3585296995 -9.7559422186 -7.6130115415 -9.5308644931 
-9.6333369022 -9.9090730393 -9.0823585846 -9.4089079516 -9.0764479116 -9.4833456644 -9.9203459964 -9.7221295683 -9.8029484122 
6.0511368982 3.3758084706 3.7035892306 1.4784370929 1.6916202629 6.842460178 4.9197682433 7.5341606361 4.8760496814 
2.790842485 3.0880443322 3.9983626511 3.7486147024 9.0911624316 8.9814255779 8.2101871195 8.8392253927 8.7163458752 
8.537550863 5.3888570254 4.8910136445 5.5140585307 6.0034297027 9.1283654839 9.6475273408 8.2292306332 6.5963105941 
5.9030326572 5.1131238795 7.9692131947 8.1056402403 8.4099262655 7.7169441599 5.3804139324 9.436471033 8.9430204618 
8.96555309 8.4427524101 5.563529891 7.6315046542 8.1231030093 9.7296301308 8.8929766667 9.5992848362 8.9856942033 
9.7906419614 8.5696061204 7.9373834474 8.8217382961 9.7205840601 8.3477456754 8.5289315407 8.7728751376 7.209734212 
9.1953303038 9.2290612869 4.7435547924 7.6287246906 9.5016343455 9.6652444088 9.7093948989 9.1990530699 7.8226099961 
8.1490010763 8.704493073 8.7233824884 8.9478350785 9.1904884994 8.3372080601 9.8865093035 9.8749552893 9.9975480402 
8.9269150617 9.2049570883 9.959589546 9.9479734597 9.0256205658 9.7293215816 9.8621449614 9.8129994413 9.9972058337 
8.5446921479 9.0007960239 8.4331983715 3.9722960454 1.3093575737 -4.994324066 -5.8014608031 -5.7730244025 -7.7123144165 
-7.6680347446 -7.9015416132 -7.9207513137 -5.5872347463 -5.882892258 0.40013557 -4.8884838777 3.9904490625 2.1573860584 
-2.9115767263 -4.029747768 -1.6978208458 -1.6578267184 -5.3276692276 -5.1401126015 -7.1015698684 -2.9028343604 -0.35157429322 
0.54456676461 -1.6710774727 -7.0632745383 -7.7846606464 -7.9685474855 -3.1861021963 -1.6561108139 -2.7484167342 -2.9116620415 
-5.5705288747 -2.3049246151 -3.9272206413 -3.9927930621 -2.9449615613 -5.6288919409 -3.3750358905 -3.2301413207 2.7078306939 
3.4520240148 3.2521222173 6.4075167001 4.0981477255 4.9737055119 6.9874356978 3.9972397708 7.0533420242 4.4664318221 
4.6042230856 4.2692597946 5.4575893411 1.4886058501 3.8851582869 2.4207142373 2.1201927105 5.1699442938 7.951638344 
7.9686809797 8.2903017445 8.9354699497 4.5081656382 9.7176867243 8.1795426921 5.2936745656 4.3407677089 8.2819706418 
4.7585675283 3.9887056851 5.3682381784 3.6701392515 0.48724875892 -0.43225841908 0.68822798415 2.9373840033 0.030929643518 
1.2670985565 1.3707087571 0.43572605402 3.5421585779 4.0260441163 2.4780627105 2.3004442315 -1.56575802 -0.70573764867 
-2.2004870688 -0.6985748113 -5.1411882821 -3.8530729156 -5.0634124822 -4.0531397237 -2.4242818685 -0.5814256811 -3.4091911666 
-1.8701692843 0.99596558279 1.2651145155 -4.9498410786 -4.1971098048 -7.0401029265 -6.9672458411 -1.8330056891 -1.8336263651 
-3.6480312836 -5.6579905312 -7.0163881196 -0.38081726253 -4.9173756726 -3.702906971 -2.8979752373 -4.379522035 -4.164477079 
-4.4960566009 -1.0380590589 -3.559592925 -1.451014057 -1.2239499702 -0.80317325074 -2.3651642822 -1.098539172 -2.3192064622 
-5.1685879164 -2.3975776796 -0.41962048299 2.7647231822 -0.72144530816 6.5368010235 9.0947462187 4.6371865421 4.1612913667 
9.3571567735 -3.2916657163 -1.7354700138 4.086012996 8.5164554251 -0.68753375788 -3.8179648623 1.2399913897 0.24624808414 
0.23336639976 0.5596884981 -5.4946966837 -3.9446243708 -5.7191311772 3.8614957149 4.0680993754 2.2478416701 2.282530863 
0.42193511783 4.2605952041 5.258112617 0.43627815816 1.0535972258 0.99128031516 1.8167454176 -3.0757013775 -3.2957758337 
-1.8986885702 2.9085623088 -0.58963871348 -1.7927958784 -0.31766896504 -1.8161266576 1.5678671188 3.9665600334 2.3017116682 

