# vtk DataFile Version 5.1
vtk output
ASCII
DATASET POLYDATA
POINTS 364 float
10 0 0 10 0 10 10 9.9927 0 
10 9.9927 10 12.3692 8.37168 -1.51293 11.9064 8.95807 6.71851 
2.80732 14.1132 6.96238 2.20759 13.1376 1.00792 0 0 0 
-0.334003 -1.15911 -15.5503 0 0 10 7.80978 9.67231 -11.0541 
-0.0331249 -2.56113 -4.62599 8.80161 9.99427 5.88473 10 0 2 
10 0 4 10 0 6 10 0 8 
10 1.99854 0 10 3.99708 0 10 5.99562 0 
10 7.99416 0 10 9.9927 2 10 9.9927 4 
10 9.9927 6 10 9.9927 8 10 1.99854 10 
10 3.99708 10 10 5.99562 10 10 7.99416 10 
11.4828 9.07599 1.81582 11.1683 9.3035 3.60902 11.0117 9.36849 5.07237 
11.0136 9.41065 6.17644 8.74469 10.2297 7.38916 6.94768 11.2636 7.24431 
5.38997 12.0151 7.28277 4.29982 12.9457 7.19223 3.36216 13.6993 7.2493 
1.91749 13.686 2.65203 1.93425 13.9785 3.80622 2.36589 14.3341 5.06123 
2.6471 14.2658 6.23783 10.7273 8.86129 -2.14165 6.92251 10.5248 -0.734254 
5.48731 11.1684 -0.424814 4.07478 11.9163 -0.10216 3.06869 12.5558 0.372647 
0 2 0 0 4 0 0 6 0 
0 8 0 2 0 0 4 0 0 
6 0 0 8 0 0 1.66667 9.99878 0 
3.33333 9.99757 0 5 9.99635 0 6.66667 9.99513 0 
8.33333 9.99392 0 0 0 2 0 0 4 
0 0 6 0 0 8 2 0 10 
4 0 10 6 0 10 8 0 10 
0.080603 9.86536 -3.98974 2.76773 9.90119 -6.07179 5.39483 9.86212 -8.00238 
6.80753 9.82897 -5.74383 0 2 10 0 4 10 
0 6 10 0 8 10 1.66667 9.99878 10 
3.33333 9.99757 10 5 9.99635 10 6.66667 9.99513 10 
8.33333 9.99392 10 2.133 9.9717 7.82995 4.00073 10.0509 5.11917 
5.99348 9.99092 2.32363 7.97361 9.8567 3.51958 2.35816 14.0437 7.64668 
1.69854 14.0061 8.18747 1.229 13.2128 8.33339 0.628599 12.4355 8.32318 
0.408682 10.8327 7.93493 1.61574 13.1367 -0.107028 1.06262 13.1106 -1.16977 
0.740116 12.896 -1.17599 -0.0370331 11.9126 -1.17081 -0.771916 10.918 -0.619555 
-0.50283 10.198 1.3248 -0.505035 10.1612 3.78788 -0.465292 10.2178 5.94047 
-0.315766 9.9638 8.03382 10 5.96321 1.51929 10 5.96321 8.48071 
10 8.97759 6.74035 10 8.97759 3.25965 10 5.96321 5 
10 2.94882 3.25965 10 2.94882 6.74035 10 4.45601 9.35089 
10 7.4704 9.35089 10 7.4704 7.61053 10 8.97759 8.48071 
10 4.45601 0.649113 10 7.4704 2.38947 10 7.4704 0.649113 
10 8.97759 1.51929 10 8.97759 5 10 7.4704 4.12982 
10 5.96321 3.25965 10 7.4704 5.87018 10 5.96321 6.74035 
10 4.45601 2.38947 10 2.94882 1.51929 10 1.44163 0.649113 
10 1.44163 2.38947 10 1.44163 4.12982 10 4.45601 7.61053 
10 2.94882 8.48071 10 1.44163 5.87018 10 1.44163 7.61053 
10 1.44163 9.35089 10 2.94882 5 10 4.45601 5.87018 
10 4.45601 4.12982 8.31161 10.6122 5.10068 3.40741 13.7727 5.04322 
4.34025 13.0957 6.81752 7.14231 11.3231 7.00403 5.37434 12.3688 5.36873 
6.55362 11.1215 2.65282 4.04472 12.7393 3.04557 2.77136 13.8569 4.19294 
3.2524 14.0063 5.78827 4.05515 13.4657 5.99823 3.48512 13.8222 6.58483 
9.01937 10.2264 4.05785 7.36805 11.0983 6.21122 8.82549 10.2674 6.02283 
8.98458 10.2763 6.86535 5.63159 12.2898 7.16297 6.01154 12.0541 6.28956 
6.63621 11.5685 5.27595 4.90326 12.6418 6.23136 4.33259 13.0466 5.25678 
7.41749 11.005 3.9987 8.51721 10.2803 2.52442 9.19213 9.84598 0.98966 
7.35631 10.5506 0.771877 5.86915 11.1877 1.13115 3.68456 13.3024 4.14449 
3.02746 13.4305 3.10822 4.66366 11.9045 1.37282 3.78377 12.5868 1.63069 
2.89507 13.0732 1.81485 5.15704 11.9967 2.85054 4.71649 12.6603 4.25 
5.90267 11.7866 4.20344 1.55564 4.06139 0 8.44436 4.06139 0 
6.72218 1.07849 0 3.27782 1.07849 0 5 4.06139 0 
3.27782 7.04429 0 6.72218 7.04429 0 9.30545 5.55284 0 
9.30545 2.56994 0 7.58327 2.56994 0 8.44436 1.07849 0 
0.694553 5.55284 0 2.41673 2.56994 0 0.694553 2.56994 0 
1.55564 1.07849 0 5 1.07849 0 4.13891 2.56994 0 
3.27782 4.06139 0 5.86109 2.56994 0 6.72218 4.06139 0 
2.41673 5.55284 0 1.55564 7.04429 0 0.694553 8.53574 0 
2.41673 8.53574 0 4.13891 8.53574 0 7.58327 5.55284 0 
8.44436 7.04429 0 5.86109 8.53574 0 7.58327 8.53574 0 
9.30545 8.53574 0 5 7.04429 0 5.86109 5.55284 0 
4.13891 5.55284 0 4.03109 0 1.51795 4.03109 0 8.48205 
1.01554 0 6.74103 1.01554 0 3.25897 4.03109 0 5 
7.04663 0 3.25897 7.04663 0 6.74103 5.53886 0 9.35256 
2.52332 0 9.35256 2.52332 0 7.61154 1.01554 0 8.48205 
5.53886 0 0.647436 2.52332 0 2.38846 2.52332 0 0.647436 
1.01554 0 1.51795 1.01554 0 5 2.52332 0 4.12949 
4.03109 0 3.25897 2.52332 0 5.87051 4.03109 0 6.74103 
5.53886 0 2.38846 7.04663 0 1.51795 8.55441 0 0.647436 
8.55441 0 2.38846 8.55441 0 4.12949 5.53886 0 7.61154 
7.04663 0 8.48205 8.55441 0 5.87051 8.55441 0 7.61154 
8.55441 0 9.35256 7.04663 0 5 5.53886 0 5.87051 
5.53886 0 4.12949 1.55564 4.06139 10 8.44436 4.06139 10 
6.72218 1.07849 10 3.27782 1.07849 10 5 4.06139 10 
3.27782 7.04429 10 6.72218 7.04429 10 9.30545 5.55284 10 
9.30545 2.56994 10 7.58327 2.56994 10 8.44436 1.07849 10 
0.694553 5.55284 10 2.41673 2.56994 10 0.694553 2.56994 10 
1.55564 1.07849 10 5 1.07849 10 4.13891 2.56994 10 
3.27782 4.06139 10 5.86109 2.56994 10 6.72218 4.06139 10 
2.41673 5.55284 10 1.55564 7.04429 10 0.694553 8.53574 10 
2.41673 8.53574 10 4.13891 8.53574 10 7.58327 5.55284 10 
8.44436 7.04429 10 5.86109 8.53574 10 7.58327 8.53574 10 
9.30545 8.53574 10 5 7.04429 10 5.86109 5.55284 10 
4.13891 5.55284 10 3.57171 10.517 7.82305 6.07058 10.6638 7.52146 
3.8287 12.2951 7.93887 6.24254 11.0753 7.37992 7.74672 10.4357 7.49559 
2.13713 11.8013 8.06351 1.32932 10.5657 8.11457 4.63693 10.8121 7.84218 
3.52176 11.5649 7.93755 2.47497 12.7008 8.11835 4.79487 11.3978 7.84301 
4.8657 11.9054 7.59922 3.14967 13.549 7.68318 4.10042 12.848 7.75912 
2.9946 13.2596 8.11317 0.480034 10.7286 -3.85337 6.02702 10.3446 -4.32284 
3.85526 11.5432 -2.96946 6.4557 10.5383 -2.35603 8.08804 9.74129 -2.94996 
0.889951 11.989 -3.06391 -0.426953 9.85984 -2.89661 2.96721 11.2405 -5.34564 
2.38656 11.6979 -4.51288 1.45984 12.5738 -2.89276 5.30815 10.7981 -3.48753 
4.99201 11.2771 -1.77751 2.7078 12.4117 -0.843819 3.80376 11.7904 -1.49413 
2.66122 12.3429 -2.0995 0 5.96891 1.51795 0 5.96891 8.48205 
0 8.98446 6.74103 0 8.98446 3.25897 0 5.96891 5 
0 2.95337 3.25897 0 2.95337 6.74103 0 4.46114 9.35256 
0 7.47668 9.35256 0 7.47668 7.61154 0 8.98446 8.48205 
0 4.46114 0.647436 0 7.47668 2.38846 0 7.47668 0.647436 
0 8.98446 1.51795 0 8.98446 5 0 7.47668 4.12949 
0 5.96891 3.25897 0 7.47668 5.87051 0 5.96891 6.74103 
0 4.46114 2.38846 0 2.95337 1.51795 0 1.44559 0.647436 
0 1.44559 2.38846 0 1.44559 4.12949 0 4.46114 7.61154 
0 2.95337 8.48205 0 1.44559 5.87051 0 1.44559 7.61154 
0 1.44559 9.35256 0 2.95337 5 0 4.46114 5.87051 
0 4.46114 4.12949 10.0111 9.99269 4.3453 10.0111 9.99269 0.682766 
10.0111 9.99269 8.00784 1.05543 14.6938 5.46049 -1.13301 11.9959 5.86586 
-0.766387 12.6823 8.05208 0.990022 14.324 7.6898 -0.981716 13.8541 5.97024 
0.248309 14.1327 2.79133 -1.02968 12.6602 2.85529 -0.946911 11.4613 4.47705 
-0.853764 11.2597 6.94907 -1.04227 12.4398 7.173 -0.689459 10.9259 7.71064 
1.37138 14.3913 4.34665 0.764959 14.6686 6.82899 1.70754 14.6581 6.09465 
1.86047 14.3443 7.01818 -0.698345 14.268 8.42367 -0.684946 14.6083 7.56305 
-0.298782 14.6832 5.99146 -1.0953 13.3613 7.17532 -1.28849 12.9549 5.92469 
0.265027 14.5987 4.33591 0.701092 14.1176 2.98053 1.39557 13.4124 1.41968 
0.561805 13.553 1.00323 0.270007 13.5506 1.13519 -1.26746 12.4979 4.25679 
-1.10374 11.9795 2.46889 -0.236664 13.125 1.23723 -0.840974 11.9208 1.01296 
-0.927186 11.3031 0.682458 -0.344714 13.6791 2.82048 -1.02373 13.3506 4.40645 
-0.319252 14.2295 4.33293 
POLYGONS 725 2172
OFFSETS vtktypeint64
0 3 6 9 12 15 18 21 24 
27 30 33 36 39 42 45 48 51 
54 57 60 63 66 69 72 75 78 
81 84 87 90 93 96 99 102 105 
108 111 114 117 120 123 126 129 132 
135 138 141 144 147 150 153 156 159 
162 165 168 171 174 177 180 183 186 
189 192 195 198 201 204 207 210 213 
216 219 222 225 228 231 234 237 240 
243 246 249 252 255 258 261 264 267 
270 273 276 279 282 285 288 291 294 
297 300 303 306 309 312 315 318 321 
324 327 330 333 336 339 342 345 348 
351 354 357 360 363 366 369 372 375 
378 381 384 387 390 393 396 399 402 
405 408 411 414 417 420 423 426 429 
432 435 438 441 444 447 450 453 456 
459 462 465 468 471 474 477 480 483 
486 489 492 495 498 501 504 507 510 
513 516 519 522 525 528 531 534 537 
540 543 546 549 552 555 558 561 564 
567 570 573 576 579 582 585 588 591 
594 597 600 603 606 609 612 615 618 
621 624 627 630 633 636 639 642 645 
648 651 654 657 660 663 666 669 672 
675 678 681 684 687 690 693 696 699 
702 705 708 711 714 717 720 723 726 
729 732 735 738 741 744 747 750 753 
756 759 762 765 768 771 774 777 780 
783 786 789 792 795 798 801 804 807 
810 813 816 819 822 825 828 831 834 
837 840 843 846 849 852 855 858 861 
864 867 870 873 876 879 882 885 888 
891 894 897 900 903 906 909 912 915 
918 921 924 927 930 933 936 939 942 
945 948 951 954 957 960 963 966 969 
972 975 978 981 984 987 990 993 996 
999 1002 1005 1008 1011 1014 1017 1020 1023 
1026 1029 1032 1035 1038 1041 1044 1047 1050 
1053 1056 1059 1062 1065 1068 1071 1074 1077 
1080 1083 1086 1089 1092 1095 1098 1101 1104 
1107 1110 1113 1116 1119 1122 1125 1128 1131 
1134 1137 1140 1143 1146 1149 1152 1155 1158 
1161 1164 1167 1170 1173 1176 1179 1182 1185 
1188 1191 1194 1197 1200 1203 1206 1209 1212 
1215 1218 1221 1224 1227 1230 1233 1236 1239 
1242 1245 1248 1251 1254 1257 1260 1263 1266 
1269 1272 1275 1278 1281 1284 1287 1290 1293 
1296 1299 1302 1305 1308 1311 1314 1317 1320 
1323 1326 1329 1332 1335 1338 1341 1344 1347 
1350 1353 1356 1359 1362 1365 1368 1371 1374 
1377 1380 1383 1386 1389 1392 1395 1398 1401 
1404 1407 1410 1413 1416 1419 1422 1425 1428 
1431 1434 1437 1440 1443 1446 1449 1452 1455 
1458 1461 1464 1467 1470 1473 1476 1479 1482 
1485 1488 1491 1494 1497 1500 1503 1506 1509 
1512 1515 1518 1521 1524 1527 1530 1533 1536 
1539 1542 1545 1548 1551 1554 1557 1560 1563 
1566 1569 1572 1575 1578 1581 1584 1587 1590 
1593 1596 1599 1602 1605 1608 1611 1614 1617 
1620 1623 1626 1629 1632 1635 1638 1641 1644 
1647 1650 1653 1656 1659 1662 1665 1668 1671 
1674 1677 1680 1683 1686 1689 1692 1695 1698 
1701 1704 1707 1710 1713 1716 1719 1722 1725 
1728 1731 1734 1737 1740 1743 1746 1749 1752 
1755 1758 1761 1764 1767 1770 1773 1776 1779 
1782 1785 1788 1791 1794 1797 1800 1803 1806 
1809 1812 1815 1818 1821 1824 1827 1830 1833 
1836 1839 1842 1845 1848 1851 1854 1857 1860 
1863 1866 1869 1872 1875 1878 1881 1884 1887 
1890 1893 1896 1899 1902 1905 1908 1911 1914 
1917 1920 1923 1926 1929 1932 1935 1938 1941 
1944 1947 1950 1953 1956 1959 1962 1965 1968 
1971 1974 1977 1980 1983 1986 1989 1992 1995 
1998 2001 2004 2007 2010 2013 2016 2019 2022 
2025 2028 2031 2034 2037 2040 2043 2046 2049 
2052 2055 2058 2061 2064 2067 2070 2073 2076 
2079 2082 2085 2088 2091 2094 2097 2100 2103 
2106 2109 2112 2115 2118 2121 2124 2127 2130 
2133 2136 2139 2142 2145 2148 2151 2154 2157 
2160 2163 2166 2169 2172 
CONNECTIVITY vtktypeint64
26 126 27 28 27 107 109 108 101 
102 110 109 108 109 110 29 110 3 
25 102 24 3 110 25 110 102 25 
28 108 29 108 110 29 107 101 28 
101 108 28 111 121 19 20 111 19 
113 112 100 114 103 112 113 21 114 
112 113 114 22 114 2 114 22 103 
23 103 22 2 114 21 21 113 20 
100 111 20 113 100 20 115 103 23 
102 115 24 115 23 24 116 112 103 
117 100 112 104 117 116 112 116 117 
109 118 102 119 104 118 101 119 109 
118 109 119 116 118 104 115 102 118 
103 115 116 118 116 115 120 111 100 
105 121 120 111 120 121 19 121 18 
18 122 0 124 123 105 123 124 15 
14 0 122 15 14 123 122 123 14 
121 105 123 122 18 121 123 122 121 
107 125 101 126 106 125 107 27 126 
125 107 126 128 127 106 16 127 128 
124 127 16 128 17 16 1 129 26 
129 126 26 17 128 129 129 1 17 
106 126 128 129 128 126 16 15 124 
130 106 127 105 130 124 127 124 130 
131 125 106 119 101 125 104 119 131 
125 131 119 120 132 105 117 104 132 
100 117 120 132 120 117 131 132 104 
130 105 132 106 130 131 132 131 130 
39 40 159 134 140 41 142 134 141 
135 142 143 141 143 142 42 6 143 
38 135 143 135 38 37 6 38 143 
41 42 141 141 42 143 40 41 140 
134 41 141 144 31 154 32 31 144 
146 133 145 147 145 136 146 147 33 
145 147 146 148 35 136 34 5 147 
34 136 35 136 34 147 5 33 147 
33 32 146 133 32 144 146 32 133 
35 148 36 148 37 36 149 136 145 
37 148 135 150 145 133 137 149 150 
145 150 149 142 135 151 152 151 137 
134 142 152 151 152 142 149 137 151 
148 151 135 136 149 148 151 148 149 
153 133 144 138 153 154 144 154 153 
31 30 154 30 4 155 157 138 156 
157 156 44 4 43 155 43 44 156 
157 44 45 156 155 43 154 156 138 
155 154 30 156 154 155 140 134 158 
159 158 139 140 159 40 158 159 140 
161 139 160 160 46 161 46 47 161 
161 47 162 7 39 162 162 39 159 
47 7 162 139 161 159 162 159 161 
163 160 139 157 45 160 160 45 46 
138 157 163 160 163 157 164 139 158 
152 158 134 137 164 152 158 152 164 
153 138 165 150 165 137 133 153 150 
165 150 153 164 137 165 163 165 138 
139 164 163 165 163 164 21 20 192 
19 173 20 175 167 174 168 175 176 
174 176 175 18 0 176 55 54 168 
0 55 176 176 55 168 19 18 174 
174 18 176 173 19 167 167 19 174 
177 50 187 49 50 177 179 166 178 
180 178 169 179 180 48 178 180 179 
52 8 180 180 169 52 53 52 169 
8 48 180 48 49 179 166 49 177 
179 49 166 181 53 169 54 53 181 
168 54 181 182 169 178 183 178 166 
170 182 183 178 183 182 175 168 184 
185 184 170 167 175 185 184 185 175 
182 170 184 181 184 168 169 182 181 
184 181 182 186 166 177 171 186 187 
177 187 186 50 51 187 51 9 188 
190 171 189 190 189 57 9 56 188 
56 57 189 190 57 58 189 188 56 
187 189 171 188 187 51 189 187 188 
173 167 191 192 191 172 173 192 20 
191 192 173 194 172 193 193 59 194 
59 60 194 194 60 195 2 21 195 
195 21 192 60 2 195 172 194 192 
195 192 194 196 193 172 190 58 193 
193 58 59 171 190 196 193 196 190 
197 172 191 185 191 167 170 197 185 
191 185 197 186 171 198 183 198 170 
166 186 183 198 183 186 197 170 198 
196 198 171 172 197 196 198 196 197 
68 67 225 66 206 67 208 200 207 
201 208 209 207 209 208 65 10 209 
64 63 201 10 64 209 209 64 201 
66 65 207 207 65 209 206 66 200 
200 66 207 210 54 220 53 54 210 
212 199 211 213 211 202 212 213 52 
211 213 212 61 8 213 213 202 61 
62 61 202 8 52 213 52 53 212 
199 53 210 212 53 199 214 62 202 
201 63 214 214 63 62 215 202 211 
216 211 199 203 215 216 211 216 215 
208 201 217 218 217 203 200 208 218 
217 218 208 215 203 217 214 217 201 
202 215 214 217 214 215 219 199 210 
204 219 220 210 220 219 54 55 220 
55 0 221 223 204 222 222 15 223 
14 221 0 15 222 14 221 14 222 
220 222 204 221 220 55 222 220 221 
206 200 224 225 224 205 206 225 67 
224 225 206 227 205 226 16 227 226 
223 16 226 227 16 17 1 68 228 
228 68 225 228 17 1 17 228 227 
205 227 225 228 225 227 16 223 15 
229 226 205 204 223 229 226 229 223 
230 205 224 218 224 200 203 230 218 
224 218 230 219 204 231 216 231 203 
199 219 216 231 216 219 230 203 231 
229 231 204 205 230 229 231 229 230 
60 59 72 72 59 71 60 11 2 
72 11 60 58 57 70 69 57 9 
56 9 57 69 70 57 70 71 58 
59 58 71 29 258 28 27 28 239 
241 240 233 234 242 241 240 241 242 
26 242 1 68 234 67 1 242 68 
242 234 68 27 240 26 240 242 26 
239 233 27 233 240 27 243 253 75 
74 243 75 245 244 232 246 235 244 
245 73 246 244 245 246 65 246 10 
246 65 235 66 235 65 10 246 73 
73 245 74 232 243 74 245 232 74 
247 235 66 67 247 66 234 247 67 
248 244 235 249 232 244 236 249 248 
244 248 249 241 250 234 251 236 250 
233 251 241 250 241 251 248 250 236 
247 234 250 235 247 248 250 248 247 
252 243 232 237 253 252 243 252 253 
75 253 76 76 254 12 256 255 237 
256 78 255 12 254 77 77 255 78 
256 79 78 255 77 254 253 237 255 
254 76 253 255 254 253 239 257 233 
258 238 257 239 28 258 257 239 258 
260 259 238 259 260 80 80 260 81 
260 261 81 3 261 29 261 258 29 
81 261 3 238 258 260 261 260 258 
262 238 259 256 259 79 259 80 79 
237 262 256 259 256 262 263 257 238 
251 233 257 236 251 263 257 263 251 
252 264 237 249 236 264 232 249 252 
264 252 249 263 264 236 262 237 264 
238 262 263 264 263 262 81 85 80 
85 84 80 81 3 13 85 81 13 
79 83 78 82 12 78 77 78 12 
82 78 83 83 79 84 80 84 79 
266 269 268 268 269 35 268 35 36 
34 269 85 35 269 34 5 13 3 
34 85 13 266 84 85 266 272 84 
85 269 266 13 5 34 271 265 270 
90 271 89 270 89 271 12 82 271 
84 272 83 271 90 12 265 271 82 
82 83 265 265 83 272 273 270 265 
270 274 88 267 274 273 270 273 274 
268 275 266 276 267 275 36 276 268 
275 268 276 273 275 267 272 266 275 
265 272 273 275 273 272 86 38 6 
277 86 87 277 38 86 267 276 278 
37 38 277 37 278 276 276 36 37 
274 267 279 274 279 87 87 88 274 
88 89 270 278 279 267 87 279 277 
277 278 37 279 278 277 281 283 284 
283 44 284 283 45 44 43 72 284 
44 43 284 4 2 11 43 11 72 
281 72 71 281 71 287 72 281 284 
11 43 4 286 285 280 95 94 286 
285 286 94 9 286 69 71 70 287 
286 9 95 280 69 286 69 280 70 
280 287 70 288 280 285 285 93 289 
282 288 289 285 289 288 283 281 290 
291 290 282 45 283 291 290 291 283 
288 282 290 287 290 281 280 288 287 
290 287 288 91 7 47 292 92 91 
292 91 47 282 293 291 46 292 47 
46 291 293 291 46 45 289 294 282 
289 92 294 92 289 93 93 285 94 
293 282 294 92 292 294 292 46 293 
294 292 293 73 74 321 75 302 74 
304 296 303 297 304 305 303 305 304 
76 12 305 99 98 297 12 99 305 
305 99 297 75 76 303 303 76 305 
302 75 296 296 75 303 306 49 316 
50 49 306 308 295 307 309 307 298 
308 309 51 307 309 308 96 9 309 
309 298 96 97 96 298 9 51 309 
51 50 308 295 50 306 308 50 295 
310 97 298 297 98 310 310 98 97 
311 298 307 312 307 295 299 311 312 
307 312 311 304 297 313 314 313 299 
296 304 314 313 314 304 311 299 313 
310 313 297 298 311 310 313 310 311 
315 295 306 300 315 316 306 316 315 
49 48 316 48 8 317 319 300 318 
318 62 319 61 317 8 62 318 61 
317 61 318 316 318 300 317 316 48 
318 316 317 302 296 320 321 320 301 
302 321 74 320 321 302 323 301 322 
63 323 322 319 63 322 323 63 64 
10 73 324 324 73 321 64 324 323 
324 64 10 301 323 321 324 321 323 
63 319 62 325 322 301 300 319 325 
322 325 319 326 301 320 314 320 296 
299 326 314 320 314 326 315 300 327 
312 327 299 295 315 312 327 312 315 
326 299 327 325 327 300 301 326 325 
327 325 326 22 2 329 2 4 329 
23 22 31 24 23 328 23 31 328 
4 30 329 329 30 22 22 30 31 
3 330 5 330 3 25 31 32 328 
24 33 25 328 32 24 24 32 33 
330 33 5 330 25 33 96 97 357 
98 338 97 340 332 339 333 340 341 
339 341 340 99 12 341 90 333 341 
333 90 89 12 90 341 98 99 339 
339 99 341 338 98 332 332 98 339 
342 40 352 41 40 342 344 331 343 
345 343 334 344 345 42 343 345 344 
346 87 334 86 6 345 86 334 87 
334 86 345 6 42 345 42 41 344 
331 41 342 344 41 331 87 346 88 
346 89 88 347 334 343 89 346 333 
348 343 331 335 347 348 343 348 347 
340 333 349 350 349 335 332 340 350 
349 350 340 347 335 349 346 349 333 
334 347 346 349 346 347 351 331 342 
336 351 352 342 352 351 40 39 352 
39 7 353 355 336 354 355 354 92 
7 91 353 91 92 354 355 92 93 
354 353 91 352 354 336 353 352 39 
354 352 353 338 332 356 357 356 337 
338 357 97 356 357 338 359 337 358 
358 94 359 94 95 359 359 95 360 
9 96 360 360 96 357 95 9 360 
337 359 357 360 357 359 361 358 337 
355 93 358 358 93 94 336 355 361 
358 361 355 362 337 356 350 356 332 
335 362 350 356 350 362 351 336 363 
348 363 335 331 351 348 363 348 351 
362 335 363 361 363 336 337 362 361 
363 361 362 
CELL_DATA 724
SCALARS scalars double
LOOKUP_TABLE default
7.07 7.07 7.07 7.07 7.07 7.07 7.07 7.07 7.07 
7.07 7.07 7.07 7.07 7.07 7.07 7.07 7.07 7.07 
7.07 7.07 7.07 7.07 7.07 7.07 7.07 7.07 7.07 
7.07 7.07 7.07 7.07 7.07 7.07 7.07 7.07 7.07 
7.07 7.07 7.07 7.07 7.07 7.07 7.07 7.07 7.07 
7.07 7.07 7.07 7.07 7.07 7.07 7.07 7.07 7.07 
7.07 7.07 7.07 7.07 7.07 7.07 7.07 7.07 7.07 
7.07 7.07 7.07 7.07 7.07 7.07 7.07 7.07 7.07 
7.07 7.07 7.07 7.07 7.07 7.07 7.07 7.07 7.07 
7.07 7.07 7.07 13.017768579 12.058030967 11.393607506 10.928880853 11.776060198 12.660002098 
10.892683869 10.164878727 11.786791228 13.117212831 12.642394646 12.572667025 12.272146189 13.03415963 12.991018013 
12.235539212 12.271221553 13.098256852 12.300130404 9.4675156298 12.358795069 10.780613387 11.602232378 12.830162892 
13.145795315 12.82828821 12.765814467 3.9012638052 3.8995687543 11.558094911 11.705984728 12.239121849 11.941202267 
11.565375176 10.2756069 11.86818494 10.620855503 9.9169929441 12.481406394 11.715594978 11.904787238 12.474257274 
12.702218747 12.874675173 12.614293991 13.144441472 13.162662995 13.045255823 13.046578301 13.218470133 13.081779153 
12.947016882 13.057838346 12.950896585 13.147542322 13.07723007 11.687429291 11.451520717 12.953996121 11.880731235 
11.340540051 11.329194851 12.239260492 12.28204189 12.746864147 12.766718863 12.420213541 11.561871483 12.232895179 
11.712420736 12.209293677 12.538160427 11.932749634 12.136268425 11.487721729 10.587057061 11.707933397 11.84490061 
12.467040938 11.82373874 12.289325163 12.565996702 11.315994344 11.979973538 11.699184105 11.218183842 -0 
-0 -0 -0 -0 -0 -0 -0 -0 -0 
-0 -0 -0 -0 -0 -0 -0 -0 -0 
-0 -0 -0 -0 -0 -0 -0 -0 -0 
-0 -0 -0 -0 -0 -0 -0 -0 -0 
-0 -0 -0 -0 -0 -0 -0 -0 -0 
-0 -0 1.8977864819 -0 -0 -0 -0 -0 -0 
-0 -0 -0 -0 -0 -0 -0 -0 -0 
-0 -0 -0 -0 -0 -0 -0 -0 -0 
-0 -0 -0 -0 -0 -0 -0 -0 -0 
-0 -0 -0 -0 -0 -0 -0 -0 -0 
-0 -0 -0 -0 -0 -0 -0 -0 -0 
-0 -0 -0 -0 -0 -0 -0 -0 -0 
-0 -0 -0 -0 -0 -0 -0 -0 -0 
-0 -0 -0 -0 -0 -0 -0 -0 -0 
-0 -0 -0 -0 -0 -0 -0 -0 -0 
-0 -0 -0 -0 -0 -0 -0 -0 -0 
-0 -0 -0 -0 -0 -0 -0 -0 -0 
-0 -0 -0 -0 -0 -0 -0 -0 -0 
-0 -0 -0 -0 -0 -0 -0 -0 -0 
-0 -0 8.3788540018 -0 -0 -0 -0 -0 -0 
-0 -0 -0 -0 -0 -0 -0 -0 -0 
-0 -0 -0 -0 -0 -0 -0 -0 -0 
-0 -0 -0 -0 -0 -0 -0 -0 -0 
-0 -0 -0 -0 -0 -0 -0 -0 -0 
-0 -0 -0 -0 -0 -0 -0 9.7254972186 -0 
-0 9.1668152269 -0 -0 -0 -0 -0 -0 -0 
-0 -0 -0 -0 -0 -0 -0 -0 -0 
-0 -0 -0 -0 -0 -0 -0 -0 -0 
-0 -0 -0 -0 -0 -0 -0 -0 -0 
-0 -0 14.136815407 14.103239057 14.13999603 14.028421562 14.139135768 3.623723424 10.726969775 
14.131958787 14.130950317 14.139993578 4.2946873611 5.1075418075 3.0608594196 -0 6.2884241791 13.23153489 
-0 -0 -0 -0 -0 0.60253150392 0.32242285405 0.64789423197 -0 
-0 -0 -0 -0 -0 -0 0.13136190946 0.46410228367 -0 
3.6304774062 5.3447571216 6.2369521274 5.1419661444 0.2739863246 1.0857892087 -0 0.3584136317 11.691013477 
10.081893551 10.652014905 3.3964134919 9.3142977305 9.2177570641 7.1402499068 0.11690078641 0.085661850076 1.8362485041 
0.10803438124 3.3802611157 9.5281276067 10.936352245 9.3764758759 12.845191431 12.843402241 12.947703141 13.118206561 
13.082047966 -0 13.768267917 13.255058895 13.10276005 13.044838871 13.539210355 9.1051480999 9.0035872198 
8.9659896408 8.8276223059 6.9660042118 8.651210677 8.8646973836 6.7085634901 6.991365518 8.0511465759 9.8924149474 
12.562430257 8.9981113736 12.879612051 12.724725053 12.759875437 12.794710469 12.639049023 12.979878849 7.8243030111 
12.728424081 12.392064747 12.379923303 12.373918702 13.017596449 12.255559038 13.008036424 12.564190697 12.430447568 
13.055419381 11.023926521 9.3428842161 12.225659728 12.920437231 12.677366446 12.503488955 7.07 7.07 
7.07 7.07 7.07 7.0583039506 4.2624088234 8.3066566531 4.5593111583 7.07 7.07 
7.07 7.07 7.07 7.07 7.07 7.07 7.07 7.07 4.0291482297 
3.825312513 3.7341071119 4.152260171 7.07 7.07 7.07 3.7085640247 4.1194058382 3.9423703874 
7.07 7.07 7.07 7.07 7.07 7.07 7.07 7.07 7.07 
7.07 7.07 7.07 7.07 7.07 7.07 7.07 7.07 7.07 
7.07 7.07 7.07 7.07 7.07 7.07 7.07 7.07 7.07 
7.07 7.07 7.07 7.07 7.07 7.07 7.07 7.07 7.07 
7.07 7.07 7.07 7.07 7.07 7.07 7.07 7.07 7.07 
7.07 7.07 7.07 7.07 7.07 7.07 7.07 7.07 7.07 
7.07 -0 -0 -0 -0 -0 -0 -0 -0 
-0 -0 -0 -0 -0 -0 -0 -0 4.4697735417 
4.2989640263 5.6200933878 5.9120634525 5.6148549642 8.5072340076 0.11816188971 0.14241064249 -0 3.9729968602 
4.1684039267 4.1365502996 4.1341323645 12.496973481 12.486623849 14.129057046 13.067715535 12.812545242 13.189393312 
12.895196955 13.232965902 13.1471824 13.236901474 13.556037579 13.006946645 13.549636547 13.612868461 1.6466371932 
-0 13.173586549 0.065442807993 14.137630501 9.8319586303 14.124287149 6.3123866768 8.9573914597 5.7406958769 
6.5515486344 8.8747913879 6.4234393643 13.030418745 8.7501814193 13.584788058 13.374556091 13.346001471 13.19863936 
13.3312289 13.165979599 13.700391966 13.536445386 13.612880646 11.158030168 13.609129874 13.404701994 13.008089209 
12.913053373 4.6417169623 8.1933052474 4.4546610976 4.6627223647 9.2576389869 9.1818861241 9.0936140891 8.3898933635 
4.8293722616 4.2400351849 8.0705772879 8.2641434973 8.3892814439 9.5051207176 9.7596893781 9.2915143784 10.709234439 
9.9418173106 8.7720553336 5.8286710165 8.9625210773 8.7780026865 11.605888663 9.8222593229 14.105684933 11.669660021 
9.7726518998 10.735986878 9.5222106432 9.7097864902 
