# vtk DataFile Version 5.1
vtk output
ASCII
DATASET POLYDATA
POINTS 356 float
0.789976 0.450088 0.265699 0.695916 0.450985 9.12103 0.32054 9.34976 0.638172 
0.253603 9.52659 9.25882 9.29016 0.662627 -0.221674 8.99471 0.757741 9.7365 
9.54203 9.20432 0.121247 9.84152 9.20034 9.28981 0.262933 -0.337898 1.29664 
0.107461 -0.719673 2.52625 -0.101771 -0.948444 4.05696 -0.0435946 -0.846081 5.83342 
-0.167854 -0.683576 7.32489 0.171676 -0.0423423 8.40677 -0.119655 1.56433 -0.0808271 
-0.163951 2.72936 -0.416869 -0.515662 4.2069 -0.610071 -0.766899 5.6315 -0.504658 
-0.733335 7.03713 -0.248391 -0.13092 7.73165 -0.0526695 -0.00235302 9.50435 1.43797 
-0.127711 9.58153 2.89958 -0.344253 9.67337 4.40774 -0.204225 9.38936 5.72764 
-0.284643 9.75529 7.00506 0.00565416 9.64456 8.19371 -0.0454414 2.00268 9.62166 
-0.284991 2.90194 10.0997 -0.630669 4.37654 10.083 -0.887157 5.59184 10.0402 
-0.967487 7.20095 9.90454 0.0658505 7.99054 9.34049 9.9813 -0.562979 1.09497 
10.2685 -0.765491 2.49527 10.3602 -0.91563 4.11716 10.3477 -0.950214 5.76547 
10.3373 -0.806481 7.27068 10.147 -0.69081 8.56907 9.67518 1.65237 -0.051503 
9.67716 2.70295 -0.60032 10.0276 3.8691 -0.516855 9.91148 5.10192 -0.345925 
10.0967 6.92073 -0.529096 9.45651 7.87706 -0.123909 9.58928 9.48078 1.49045 
9.8716 9.51196 2.84102 10.1265 9.34432 4.37254 10.1452 9.46134 5.84031 
9.91872 9.34781 7.169 9.93566 9.61058 8.24985 9.71933 1.91452 9.61628 
9.57625 2.89635 9.75952 9.72489 4.46384 9.81812 9.99989 5.50077 9.95361 
10.1225 6.72956 9.60648 9.64771 7.83695 9.65018 1.58347 0.296964 -0.325949 
2.5479 -0.456539 -0.497937 4.06027 -0.238822 -0.715069 5.65539 -0.29114 -0.976736 
6.88659 -0.0552122 -0.551605 7.86444 0.323652 -0.432473 1.71741 0.558398 9.73839 
2.67507 -0.306413 10.0331 4.06773 -0.122036 10.1605 5.36428 0.14308 9.87324 
6.89532 0.132962 9.88232 7.84353 0.464851 10.0225 1.27732 9.53556 -0.28222 
2.57576 10.3855 -0.38043 4.20104 10.6143 -0.498955 5.88924 10.5082 -0.489771 
7.57056 10.3064 -0.625261 8.00073 9.48796 -0.225429 1.6424 9.71543 9.60243 
2.68724 10.4319 9.65097 3.99336 10.1745 10.0128 5.28405 10.1888 9.87305 
7.20654 10.4624 10.212 8.25842 9.81126 10.0342 -0.815953 0.225313 4.98216 
-1.72057 5.77009 1.82244 -1.92266 5.74804 7.86106 -0.64694 0.466293 7.97054 
-0.500067 0.583297 1.81117 -0.887664 2.95344 9.04734 -0.924166 8.51915 8.9462 
-1.23343 8.64816 6.29747 -1.14122 3.02893 0.396501 -0.993576 8.55405 3.29666 
-0.729723 8.24719 0.723528 -1.95792 5.74547 4.92771 -1.83868 2.91018 3.47249 
-1.93195 2.91703 6.46359 -0.131402 0.87895 8.94784 -0.812482 0.222063 6.66921 
-0.738495 0.359406 3.36202 -0.137373 0.761205 0.759982 -1.64081 4.14713 8.92592 
-1.33478 5.74526 8.92481 -1.43476 7.31626 8.48628 -1.59891 7.2211 7.13391 
-1.0105 8.5337 7.81444 -1.48305 4.29394 0.632517 -1.25826 5.87121 0.473963 
-1.5618 7.18229 2.60454 -1.27852 7.12106 1.16094 -0.819692 8.51432 1.90544 
-1.18034 8.54846 4.85859 -1.65125 7.17799 4.13594 -1.89472 5.76979 3.46164 
-1.81466 7.24027 5.75708 -1.93861 5.69956 6.40468 -1.88072 4.3735 2.6341 
-1.53121 2.81713 1.66998 -1.03245 1.67443 1.13387 -1.40671 1.52283 2.4876 
-1.66374 1.3991 4.14843 -1.92266 4.38392 7.36634 -1.59076 2.65642 8.14885 
-1.53677 1.30325 5.7685 -1.48685 1.41011 7.36047 -1.04062 1.43461 8.59708 
-1.98244 2.88792 4.98912 -2.07393 4.31587 5.67165 -1.98781 4.36595 4.27924 
10.783 0.449225 4.99694 10.9765 5.68364 1.9506 11.3409 5.66994 7.94536 
10.5903 0.342088 7.88993 10.5219 0.235718 1.49348 10.4374 2.88772 8.98341 
10.5326 8.1628 8.78578 10.6751 8.44807 6.36173 10.4948 2.82038 0.451606 
10.5691 8.28107 3.44344 10.4417 8.01222 0.787232 11.3846 5.67374 4.94921 
11.4248 3.17823 3.46887 11.2712 3.11459 6.46878 10.0142 0.725616 9.02778 
10.8171 0.364676 6.65553 10.753 0.406208 3.26539 10.0565 0.567211 0.470001 
10.6553 4.03008 8.80221 10.6736 5.72806 8.9889 10.7146 7.14312 8.46686 
11.1276 7.08963 7.13971 11.1726 8.81413 7.65025 10.9278 4.24538 0.605624 
10.4854 5.84279 0.523889 11.0264 7.0057 2.81251 10.6179 6.92665 1.28009 
10.732 8.4189 2.06674 10.6403 8.17571 4.89955 11.1024 7.04158 4.18017 
11.392 5.70097 3.43547 11.2927 7.02284 5.67968 11.1444 5.63949 6.4298 
11.3043 4.52251 2.4972 11.073 2.92834 1.63566 10.8278 1.36697 0.882123 
11.2529 1.43925 2.40551 11.2017 1.64046 4.17803 11.1706 4.43338 7.45174 
11.1521 2.75949 8.08084 11.4523 1.57325 5.76376 11.1344 1.36629 7.26795 
10.8278 1.42833 8.53971 11.3648 3.10592 4.97901 11.4533 4.4293 5.7858 
11.2639 4.43203 4.20523 4.17169 -1.57729 1.66848 4.23095 -1.37505 8.11121 
9.13533 -1.31659 4.97201 9.14335 -1.0702 8.12876 9.22944 -1.0965 1.62025 
7.0126 -1.03672 9.46306 1.43764 -0.472674 8.99675 1.03507 -1.41507 6.53955 
7.0975 -0.79699 0.311578 1.09937 -1.35758 3.30302 1.41657 -0.555375 0.628947 
4.27656 -2.10538 4.9774 6.7418 -2.19464 3.39593 6.743 -1.9809 6.4909 
8.78915 -0.340953 9.25506 9.23524 -1.31001 6.67774 9.16026 -1.34063 3.2454 
9.0128 -0.220014 0.533083 5.68039 -1.03453 8.97697 4.03016 -1.05082 9.2699 
2.69544 -0.986453 8.62323 2.77382 -1.6071 7.34263 0.964378 -1.44094 8.0757 
5.65148 -1.09989 0.377545 4.04949 -1.18953 0.241572 2.88303 -1.69205 2.57187 
2.60721 -1.09314 0.91416 1.18299 -1.20327 1.79062 0.968628 -1.55623 4.85394 
2.88595 -1.92651 4.1674 4.24336 -1.91734 3.39278 2.92394 -1.83264 5.68852 
4.2434 -1.90014 6.56886 5.41716 -1.81583 2.42561 6.88207 -1.75947 1.52015 
8.24707 -1.35341 0.446138 8.24476 -1.72033 2.40419 8.09801 -1.73776 4.1511 
5.38012 -1.74561 7.50319 6.98223 -1.90947 8.2222 8.07805 -1.91916 5.70426 
8.15654 -1.57717 7.38208 8.17972 -1.3849 9.06901 6.73646 -1.93852 4.96962 
5.49845 -1.98561 5.76354 5.46405 -1.94258 4.20708 4.11441 11.2377 1.95209 
4.19098 11.2898 7.78167 9.14702 10.1247 4.95625 9.11792 10.4331 7.91904 
9.07648 10.2604 1.89102 7.11276 10.9283 9.38921 1.26985 10.35 8.78188 
0.986072 10.5527 6.28041 6.87253 11.0306 0.149552 0.902708 10.4389 3.37361 
1.34794 10.2959 0.61606 4.10571 11.2908 4.92369 6.98632 11.1769 3.50833 
6.99784 11.2778 6.27714 8.82532 9.9413 8.8893 9.20782 10.2727 6.45599 
8.94497 10.0398 3.45245 8.74855 9.88828 0.454008 5.71631 11.1019 8.92553 
4.26691 11.0777 9.03393 2.49092 10.9117 8.53631 2.62874 11.2289 7.04787 
1.16594 10.4886 7.6801 5.5923 11.0891 0.503284 4.04167 11.0373 0.423086 
2.61757 11.0464 2.79306 2.53703 10.7896 1.05031 1.0975 10.4178 1.8839 
0.914207 10.426 4.85849 2.44472 11.1229 4.20855 4.07462 11.2705 3.57057 
2.55323 10.9533 5.51477 4.114 11.316 6.32906 5.48757 11.3505 2.75629 
6.99058 11.381 1.55881 8.22355 10.7364 0.713434 8.42744 11.1459 2.35077 
8.24004 10.9955 4.0822 5.52434 11.4228 7.09016 7.01209 11.4172 7.85907 
8.1943 10.8575 5.81852 8.35427 11.3873 7.16433 8.33551 10.9372 8.94074 
7.05232 11.18 5.01722 5.56766 11.4389 5.60179 5.55281 11.3177 4.29185 
1.83465 4.17339 -1.74385 7.80322 4.23849 -1.69662 4.97163 9.35798 -1.22681 
7.68522 9.01787 -0.924087 1.79259 8.96137 -0.847859 9.17186 6.74326 -1.22372 
8.58035 1.66488 -0.874863 6.25822 1.26584 -1.28924 0.0864005 6.83137 -1.19071 
3.35617 1.19771 -1.39376 0.896524 1.60818 -0.45294 4.96426 4.19653 -1.7575 
3.46209 6.77245 -1.84327 6.42094 6.7921 -1.91349 8.52095 8.5326 -0.400465 
6.53776 9.43316 -1.33418 3.27557 9.35445 -1.14298 0.582833 8.79682 -0.329256 
8.79353 6.01557 -1.25622 8.86399 4.43808 -1.07575 8.46393 3.00706 -1.28157 
7.06671 2.90319 -1.55764 7.48524 1.4819 -1.26257 0.638101 5.5547 -1.30819 
0.323386 4.02158 -1.21161 2.71966 2.77695 -1.55192 1.12759 2.62645 -1.23749 
2.0859 1.38103 -1.05272 4.84506 1.15664 -1.32223 4.1915 2.78934 -1.70632 
3.4459 4.20859 -1.89313 5.63029 2.82672 -1.92569 6.41327 4.18606 -1.79094 
2.60052 5.48105 -1.814 1.70706 6.82125 -1.60151 0.819158 7.9862 -1.02034 
2.63501 8.01544 -1.54913 4.17337 8.18345 -1.61466 7.25322 5.44325 -1.75086 
7.95743 6.94741 -1.62052 5.70865 8.05143 -1.49599 7.24643 8.14323 -1.75943 
8.75711 8.27982 -1.77901 4.8768 6.79533 -1.98104 5.63494 5.45362 -1.98563 
4.18248 5.48725 -1.88686 1.91642 4.22657 10.8684 7.4809 4.31017 10.6624 
4.82677 9.00532 10.5144 7.63276 8.90121 10.5142 2.06868 8.85487 10.212 
9.10734 6.6329 10.399 8.51511 1.80602 10.3417 6.09512 1.34733 10.7729 
0.492016 6.55511 10.343 3.56371 1.32718 10.3479 0.935872 1.79105 10.0939 
4.96599 4.15554 11.0449 3.43679 6.76199 11.0825 6.30235 6.67164 11.1013 
9.0095 8.79209 9.99005 6.41806 9.2337 10.1795 3.2615 9.10674 10.5199 
0.712268 8.66503 9.72893 8.76421 5.41215 10.7073 8.89619 4.10835 10.5691 
8.25138 2.93024 10.579 6.98138 2.88924 10.9218 7.34975 1.52115 10.4063 
0.685102 5.46229 10.7654 0.636719 4.12399 10.4315 2.7309 2.80726 10.9478 
1.25903 2.88565 10.5583 2.27259 1.38502 10.1982 4.92177 1.39349 10.4497 
4.28645 2.79228 10.8953 3.44688 4.21761 10.9314 5.69006 2.7993 10.7907 
6.3473 4.14475 11.0225 2.58572 5.45502 11.1742 1.8489 6.73506 10.8396 
1.04001 7.77254 10.681 2.60966 7.92803 11.041 4.24707 7.96505 10.8714 
7.22897 5.36226 11.2205 7.8339 6.73276 11.0675 5.67086 8.17067 11.0319 
6.81629 7.92822 11.0261 8.51457 7.81882 10.866 4.91056 6.86836 11.4772 
5.63837 5.4881 11.0564 4.25442 5.50817 11.0981 
POLYGONS 709 2124
OFFSETS vtktypeint64
0 3 6 9 12 15 18 21 24 
27 30 33 36 39 42 45 48 51 
54 57 60 63 66 69 72 75 78 
81 84 87 90 93 96 99 102 105 
108 111 114 117 120 123 126 129 132 
135 138 141 144 147 150 153 156 159 
162 165 168 171 174 177 180 183 186 
189 192 195 198 201 204 207 210 213 
216 219 222 225 228 231 234 237 240 
243 246 249 252 255 258 261 264 267 
270 273 276 279 282 285 288 291 294 
297 300 303 306 309 312 315 318 321 
324 327 330 333 336 339 342 345 348 
351 354 357 360 363 366 369 372 375 
378 381 384 387 390 393 396 399 402 
405 408 411 414 417 420 423 426 429 
432 435 438 441 444 447 450 453 456 
459 462 465 468 471 474 477 480 483 
486 489 492 495 498 501 504 507 510 
513 516 519 522 525 528 531 534 537 
540 543 546 549 552 555 558 561 564 
567 570 573 576 579 582 585 588 591 
594 597 600 603 606 609 612 615 618 
621 624 627 630 633 636 639 642 645 
648 651 654 657 660 663 666 669 672 
675 678 681 684 687 690 693 696 699 
702 705 708 711 714 717 720 723 726 
[...]
CELL_DATA 708
SCALARS scalars double
LOOKUP_TABLE default
-5.8515391275 -5.580596743 -5.3185369775 -5.8197168362 -5.6974737968 -5.5245553284 -5.6243844771 -5.2898813918 -5.098055864 
-5.3588414983 -5.2306437583 -4.9948629438 -5.2005515842 -5.0927328649 1.6558593461 1.7366231193 -1.9505040356 -3.5511001275 
-0.15107239806 -1.3137956566 2.5967699158 3.6502730507 3.3268518837 3.6996191389 0.89954666531 5.8084308424 6.0887492468 
7.0738192873 6.6123237937 5.8818408046 0.7911840244 2.6335569446 0.27497874668 -2.5014107849 -4.0100149547 1.0270013948 
-0.99840900964 -0.94151759322 0.79316522638 2.1650873701 4.3248981136 3.8313282347 3.9836568946 6.0282806716 5.7025861857 
6.1771362229 6.0505731293 6.1372139513 2.9191230536 1.5515481753 1.853378923 1.0606984842 4.5360653527 5.6754074338 
7.8830678843 7.1663008686 4.0453931971 5.6881653638 6.366808575 1.6786947501 1.8842097911 1.9635648131 3.2725157384 
0.86747741316 2.163001611 1.4384746631 1.5239699598 4.0095260453 3.7386411125 3.731932384 -0.0076017974098 -1.919911616 
-1.2032237189 -1.016075984 -1.9671369971 -6.1121876656 -5.3959727822 -1.854278035 -4.9868136496 -5.5734951781 -5.5454774694 
-5.8222691301 -5.5534230523 -1.9140892482 -2.4822659589 -2.6825353601 -0.61111652486 -1.0557730221 -3.5930292344 -1.1608295526 
-2.5684065463 -5.7087935379 -5.0991570575 -5.1957386089 -0.59056979924 -5.472878831 -5.1910095755 -4.4877398829 -4.0449528201 
-1.1125616765 -1.8646584618 -2.840564128 -5.7090193994 -2.5312874451 -1.565198151 -2.4204381168 -0.49566539439 -0.040180455802 
0.89030725726 0.51343088739 -0.65917080932 0.41536442476 0.52566548674 0.28408941854 0.49745416755 -0.49229696403 -0.80889353581 
-0.33843093219 -3.0004664336 -2.0911810723 -3.4334689619 -3.6030949045 -3.9241348215 -2.9652842066 -2.9586380668 -3.1141118059 
-3.3318189633 -4.0713703291 -4.5833816092 -3.7675597351 -4.2430311361 -0.033460040071 -0.68414628861 -0.70438846538 -0.9084853326 
-0.31110430303 0.84355872102 -2.6566859101 2.9279070247 0.016415236523 0.88645374657 -1.1336642731 0.9658783986 7.7356051228 
8.6525954882 4.4760036514 4.8397364465 2.4148971916 1.6919734539 0.12711468142 1.5983310734 -1.9377121788 -0.008758315209 
2.4140165344 -1.793447051 1.6008476028 1.7412930783 1.3456094173 2.7214875285 0.50316118006 0.63467837143 4.5399477613 
5.9027817169 5.4602465554 6.7957587066 5.4254955691 0.3021835038 1.0323427451 0.75583149927 -1.3578888906 0.93076474477 
5.989878266 4.2030782872 5.2886842658 3.6359606687 3.9626311799 3.8598424425 1.3900294343 2.0659357696 2.4257382868 
3.6009116962 -0.19222049257 0.74974767626 -0.44417602248 1.3363475084 4.364469774 3.8660317271 4.3319162906 1.69620084 
-2.2404240419 -0.43865318091 -0.39931551359 -3.9732930921 -1.271689265 -4.0933582867 -1.2409029809 -1.686666697 -4.0586739437 
-3.1321361575 -3.8640069041 -3.6937233441 0.19788410371 0.73459568081 -0.22094101481 -2.4065938503 0.18126627081 -0.49673092912 
1.3584849134 0.19183799277 -3.9854235746 -3.3351114294 -3.7666402911 -0.46837514249 -1.8857309866 -3.4021820152 -2.5906925164 
-2.12666038 0.21988810763 -0.49236493802 -1.5137124867 -4.2278978456 0.88461331345 -1.2844718648 -0.2405585727 -0.4956668599 
-0.85660151079 1.6241989613 1.6071415083 1.1021304924 -0.9854129128 1.426693185 -0.89071836476 -0.25172203666 1.0144700564 
-1.047899042 0.061097406351 -9.397242229 -4.2977023368 -9.2760352187 -9.2335905151 -9.0300660803 -9.5382235877 -9.4498202812 
-9.3985001011 -9.1023818386 -8.8811747154 -8.6138149339 -2.2269815255 -6.7343375457 -6.7131843608 -4.5408194927 -9.5864001422 
-6.8872127246 -3.3809836043 -6.2800241865 -6.9240678708 -5.3078714364 -8.9871650768 -6.7355306735 -9.9475862501 -8.9343640952 
-8.4229436007 -5.112666272 -4.9667771991 -4.5696950085 -3.7525501536 -9.5717898274 -8.77083479 -8.7465231394 -4.4868833448 
-6.6461511756 -7.5857121406 -9.6050263515 -8.4842895908 -8.530539312 -7.0637729644 -9.3861565897 -9.6750936013 -8.234103532 
-9.3968352669 -8.867321381 -7.4759909058 -5.6713608437 -5.5072511075 -7.6995113399 -8.7409979452 -8.7342992285 -9.5342814206 
-8.8843488107 -7.0930952816 -5.7066338152 -8.5472991524 -8.683339693 -9.6102733875 -9.0349707956 -8.4577240073 -9.8039290704 
-9.914052263 -9.8653502555 -9.7944969251 -9.8331438242 -9.4651769168 -9.8371465945 -9.8426352909 -9.8024970366 -9.6096807101 
-9.8385865416 -9.4448164617 -7.8661977698 -9.6682315341 -9.2273251551 -4.0026166563 -8.59948328 -9.5030419277 -2.9614495598 
-9.0178881929 -9.3846347558 -9.3032188893 -8.8737814154 -9.634679304 -7.2660167783 -9.7238517979 -8.9494921564 -9.9011278095 
-7.9767637786 -8.3623616864 -9.6912823042 -9.1501737287 -9.2388163388 -9.2398414849 -3.0952584318 -3.5681948521 -9.1352132791 
-4.2981951109 -3.701456822 -8.1638391331 -9.6185974677 -9.3568977697 -8.9240526084 -9.9916668184 -9.5906968196 -9.9040636029 
-9.8863018067 -9.3841938363 -9.9163972247 -9.9019989844 -9.7079627917 -9.911701507 -9.7912270849 -9.9705879085 -9.9272231794 
-9.828279514 -9.994076336 -9.9940547484 7.2707426254 8.1527363073 6.086296737 6.826142044 8.1204787553 8.0044004097 
6.5899664209 6.8922225725 8.6558779703 6.3168822196 6.0265289716 5.6816438819 6.6165954184 7.8105380411 5.9502569051 
9.8591298933 7.2896139137 8.40825184 7.424426502 7.3994721233 7.0243638202 9.7217337842 9.0924945934 9.04130988 
9.0684597628 8.6780731513 8.3241693499 8.0578547313 8.3028093729 6.0069289995 9.7485703962 8.5308246679 8.8676452685 
7.0341823523 7.4603553071 8.2110585761 9.9133460003 8.4399456041 8.6910998544 9.0833260464 9.707714371 9.3448866143 
9.3116535369 9.4098381546 7.9119695527 7.9177968021 6.3550456711 6.7485849959 7.8427567872 7.8571930254 9.2054924573 
9.7091474216 9.2618501185 8.871972485 6.8440741948 7.2163166718 7.4800410187 9.279462003 8.5636921622 7.9647587679 
9.899114515 9.9538535529 9.9090465375 9.3693855761 9.7575407633 9.9860865845 9.7586228441 9.7727372571 9.5748796153 
9.1180224833 9.2226560068 9.9316913612 9.7065349466 9.9258661881 9.8606936978 2.1110271298 6.2341968761 9.903758371 
4.9465743611 6.7408929185 7.5612361251 5.2817549332 6.5381873406 9.8908254222 9.1766922191 9.1704429001 9.8486853408 
9.9488986715 9.5274941436 9.7945210578 9.090140857 7.990740463 6.0824534037 6.9947429812 8.6602106267 2.2118990343 
6.9887466607 8.2044027991 3.7659815009 9.495240096 9.9589084707 9.5833576889 7.5530211242 9.4875089535 9.8910536811 
9.7274886717 9.9432430204 9.9589569428 9.9552655144 9.967518381 9.9413974373 9.9958584043 9.9736735125 9.9879680578 
9.9410571669 9.955130086 9.8700966581 9.8642129541 8.069773085 3.1038965139 4.2158487022 6.2196428148 3.4520762699 
5.1793282083 1.9261771869 4.1561992786 5.2805789477 4.2321278668 4.6563339354 4.8904431343 4.1319772372 6.0565196074 
5.993178845 -0.74780154542 -0.86841199185 -1.4068580662 -2.2245932676 -0.5777736634 1.6238978837 -2.1229387701 -2.4191637299 
-1.8760490402 -1.4170447274 -4.4907122742 -4.9262835297 -4.1278748091 -4.6107020776 -3.8710326467 -0.18003893658 -2.2679500201 
-0.10732975096 -0.9559690385 1.3909101507 4.7907631652 0.089508873583 -1.3612112288 -0.23526254168 0.65847655456 -2.3713463342 
-2.0727374323 -4.7061254571 -2.6601622401 -4.5134085546 -3.2773824738 -4.8707063143 -3.8184415167 -3.5811145798 -3.4260690481 
-4.526702368 -1.6313532062 -2.9046254969 -2.4251695508 -2.7376567111 -2.1117389027 -3.1651887837 -1.3980337442 -4.1397260838 
-3.1473617455 -1.8924572466 -0.84419509267 -1.81844516 -2.7658926683 1.1123325546 -1.4265577337 -0.48340765743 0.47431631195 
-3.5994454233 -2.1321658521 -2.7870363173 0.91895422388 -0.17023828013 0.67208079819 -0.13186065834 6.5717925615 4.8474621314 
1.9024830217 3.1940426855 4.1232224628 4.1251013254 3.2228949095 4.1437596805 1.448623612 2.8547363602 2.5375935721 
0.83146601999 -0.026977385937 -1.0940296629 -0.72589165136 2.1782208956 3.6636732906 2.107763781 2.1883768027 -1.1810166233 
4.6797625759 7.0776138902 1.4527136618 8.1113567584 -2.6576325478 -0.02588319768 -1.1674732073 2.5258987668 3.3566280543 
2.0717901673 3.0062327609 -0.30840742558 -0.13770096826 -1.661198498 -0.63966404431 0.080775874853 -0.46111508668 0.0062049249893 
0.31452734904 -1.4161666994 -0.20382491965 0.28133956068 -0.35363597484 3.9575261648 3.3697849301 3.311730747 0.93350277102 
4.9034646217 4.4691495119 2.6292662146 3.7032275321 5.0054334417 4.4792219814 4.2935745374 5.3293013138 1.1520163024 
3.4678581013 2.7472920534 -1.0009785991 -0.10067475092 1.622125983 0.70681843668 -0.92276242751 -2.4441187808 0.85364407729 
-1.8325529483 -2.6317583615 -2.7887688014 -4.2249970247 -3.4830402315 -3.6456070285 -2.8762875898 -0.48954951104 -0.25608220477 
-0.56424844721 -2.677757383 -2.3828148867 0.68308488767 -1.1128055492 -2.2076010788 2.7299330047 -0.57196426872 -2.2075698519 
-0.95065505477 -4.3141441324 -3.4017570113 -3.8517726977 -1.5190675371 -3.7930716677 -4.6479946839 -4.8489176845 -1.9074603483 
-1.2467162267 -3.0593115665 -0.62897516548 -0.45122223093 -0.53533770274 -5.0922163115 -4.770564535 -5.9507582894 -3.6191772385 
-1.5072914747 -3.2380352788 0.32408687044 -0.70641704746 -0.054487292753 -0.39612861828 -1.7665726141 0.71257915565 -1.2545529776 
-1.4526305029 -0.8648675876 -3.2561539073 -2.7256516482 -1.2746974805 2.7960209256 1.6722107586 1.3362269101 8.1703284778 
5.1655671247 1.0616221681 3.5858470233 4.8133734407 3.5519821331 3.6167673601 5.6712983878 -0.71111991955 -1.1258907095 
-0.2352263545 -3.888057528 1.03165283 0.90271904843 -0.34532594295 0.53094106383 5.1685076843 2.5496958628 5.6623730713 
-0.027135179349 3.7969951128 3.8797288639 1.2258081564 2.3731495867 -1.2073286384 0.51579132441 1.2005178383 3.9876484238 
1.6118608425 3.3768112596 4.01587763 0.19004823851 -3.7951877715 -0.16757530104 -0.82392051443 0.41241063752 -0.79901802238 
-2.2005173025 -1.5869782108 -0.23667118631 -1.4838972001 -1.680688311 -2.7952767354 
