# vtk DataFile Version 5.1
vtk output
ASCII
DATASET POLYDATA
POINTS 356 float
0.778093 0.407453 0.29831 0.876639 0.488041 9.23136 0.27051 9.23565 0.550371 
0.336201 9.16405 8.8601 8.74853 0.721464 -0.016578 8.94591 0.631349 9.39926 
9.42326 8.89363 0.626995 9.21576 8.63053 8.90364 0.18644 -0.31605 1.48324 
0.00642089 -0.746014 2.70772 -0.144327 -1.00279 4.20388 -0.110559 -0.995052 5.88008 
0.0205394 -0.720736 7.16896 0.166283 -0.219823 8.27716 -0.0890921 1.70228 0.036667 
-0.280095 2.88524 -0.575515 -0.63353 4.22733 -0.619103 -0.665596 5.56717 -0.550614 
-0.762762 6.85621 -0.262261 -0.161744 7.91279 -0.103832 -0.0169157 9.54006 1.62596 
-0.206733 9.58595 2.76999 -0.37142 9.65914 4.34615 -0.633957 9.86739 5.62864 
-0.288609 9.67478 6.94334 -0.038189 9.53611 8.06864 -0.0179927 1.81601 9.49647 
-0.196387 3.17797 9.96442 -0.57475 4.3211 10.0209 -0.793094 5.56759 9.85422 
-0.814705 6.95923 9.67351 -0.283228 7.69301 9.3883 9.79086 -0.419893 1.14222 
10.1634 -0.906231 2.4595 10.353 -0.95969 4.00239 10.3084 -0.941883 5.69259 
10.1558 -0.81654 7.31582 9.68487 -0.456732 8.55114 9.63212 1.77471 -0.00204277 
9.66056 2.8381 -0.50455 10.0999 4.08343 -0.54638 10.1977 5.41864 -0.570269 
10.0512 6.71254 -0.349477 9.51653 7.61076 -0.191593 9.61215 9.34276 1.68009 
9.88328 9.4883 2.92229 10.1935 9.501 4.29515 10.3101 9.64641 5.71021 
10.1044 9.51819 7.0106 9.86561 9.43246 8.33385 9.61058 1.79981 9.54238 
9.69568 3.00284 9.86889 9.94432 4.27981 9.98538 10.038 5.48522 9.89654 
9.98348 6.93577 9.57258 9.61593 7.65647 9.45451 1.7583 0.422563 -0.425736 
2.82106 -0.331469 -0.448559 4.19032 -0.291862 -0.812815 5.64017 -0.140828 -0.803038 
6.8684 -0.152917 -1.00535 7.80912 0.266751 -0.588275 1.74002 0.512848 9.64461 
2.71599 -0.214469 9.65917 4.11507 -0.0570373 10.0084 5.50054 -0.0619539 10.0414 
6.84803 0.110559 9.94649 7.82582 0.478585 9.83859 1.58663 9.4519 -0.14832 
2.65222 10.2552 -0.384404 4.25393 10.568 -0.58236 5.63263 10.4629 -0.726515 
7.09713 10.204 -0.558544 8.15131 9.71132 -0.400155 1.72484 9.65133 9.43221 
2.77317 10.3944 9.58859 4.19028 10.122 9.79046 5.61968 10.2733 9.94732 
7.11708 10.016 9.78018 8.24159 9.78507 10.0717 -0.973781 0.116999 4.96588 
-1.90516 5.70921 1.77455 -2.03852 5.71952 7.90595 -0.714158 0.457732 7.92621 
-0.717525 0.466695 1.98454 -1.24595 3.07795 9.17573 -0.674282 8.1249 8.72247 
-1.39616 8.58421 6.31907 -1.21123 3.11122 0.456977 -1.2596 8.60374 3.32941 
-0.74264 8.12455 0.88367 -2.21008 5.7282 4.95384 -2.07919 2.85726 3.44936 
-2.04543 2.87511 6.47053 -0.140845 0.942972 8.79806 -0.911883 0.233849 6.5298 
-0.91729 0.260348 3.34879 -0.227081 0.882112 0.75575 -1.63561 4.22905 8.82728 
-1.45435 5.8306 9.00016 -1.37402 7.15499 8.37696 -1.91936 7.21888 7.15017 
-1.28155 8.49821 7.72659 -1.54812 4.34564 0.668401 -1.41409 5.80417 0.489126 
-1.86307 7.19876 2.52355 -1.46775 7.06693 1.17926 -0.866246 8.37018 2.13153 
-1.32074 8.53024 4.83559 -1.98705 7.21214 4.15534 -2.13404 5.77138 3.43332 
-1.91864 7.23271 5.72449 -2.12657 5.70906 6.44006 -2.07299 4.36338 2.60598 
-1.78583 2.83801 1.66724 -1.17586 1.6959 1.0939 -1.527 1.56063 2.54483 
-1.73251 1.37128 4.13665 -2.05686 4.35387 7.38845 -1.77998 2.70883 8.09185 
-1.72022 1.26565 5.74223 -1.53454 1.50846 7.31119 -1.17765 1.59788 8.50605 
-2.11708 2.86666 5.00021 -2.24476 4.3157 5.68359 -2.21677 4.35098 4.2606 
10.8767 0.329445 4.95752 11.2342 5.66481 1.84066 11.2477 5.67059 8.01123 
10.3865 0.339128 7.89879 10.6475 0.232678 1.70077 10.6792 2.91838 9.1603 
10.539 8.15737 8.81051 10.885 8.54458 6.31328 10.7057 2.79583 0.417141 
10.7584 8.32913 3.5201 10.2465 7.86375 0.973707 11.5698 5.72182 4.93175 
11.5921 3.16034 3.37254 11.5777 2.96158 6.55076 9.90237 0.77465 8.98433 
10.751 0.339971 6.3679 10.8148 0.383304 3.20273 9.87862 0.791115 0.596194 
10.8758 4.16796 8.83392 10.584 5.71608 8.84859 10.6566 7.07473 8.38823 
11.1854 7.16127 7.11991 10.5132 8.33088 7.59067 10.9982 4.23899 0.543026 
10.7271 5.71485 0.42712 11.127 7.04831 2.72245 10.8005 6.82366 1.22879 
10.4781 8.23358 2.15756 11.0264 8.46545 4.94362 11.2715 7.09808 4.16825 
11.5201 5.70785 3.40013 11.3825 7.05716 5.66478 11.5812 5.72995 6.48693 
11.4892 4.39889 2.43755 11.3247 2.7626 1.42809 10.8445 1.51526 1.05989 
11.2104 1.45356 2.35031 11.4047 1.45969 4.06939 11.3464 4.34131 7.4522 
11.2042 2.69456 8.12473 11.5503 1.51835 5.70987 11.2955 1.37967 7.30602 
10.7005 1.46059 8.6034 11.6768 3.04556 4.95522 11.6293 4.3886 5.77735 
11.6434 4.40577 4.13827 4.12461 -1.81914 1.51987 4.0831 -1.72668 8.22426 
9.23611 -1.71134 4.91784 9.00369 -1.22382 7.94476 9.23384 -1.30748 1.50107 
6.82928 -1.09175 9.29403 1.44984 -0.552912 8.8775 1.04881 -1.45791 6.48489 
6.87101 -1.09897 0.136994 1.03203 -1.60876 3.35285 1.61536 -0.710935 0.602958 
4.22939 -2.26327 4.97546 6.79373 -2.30068 3.30111 6.83368 -2.32474 6.58108 
8.65869 -0.381534 9.06623 9.1899 -1.5939 6.44303 9.22773 -1.47657 3.20573 
8.75495 -0.401054 0.347138 5.50791 -1.38995 8.99786 3.95389 -1.11876 9.22894 
2.56212 -1.18593 8.60261 2.68749 -1.79261 7.38572 1.11049 -1.09502 7.81704 
5.52967 -1.42414 0.281118 4.01771 -1.13926 0.171251 2.78447 -1.95659 2.54621 
2.63012 -1.37506 0.917068 1.20602 -1.33545 1.93508 0.923171 -1.64017 4.94432 
2.85653 -2.08062 4.16223 4.17858 -2.21332 3.34943 2.87039 -2.02337 5.69315 
4.13832 -2.20173 6.65321 5.40853 -2.17791 2.33522 6.97107 -1.92384 1.3568 
8.12369 -1.29338 0.731285 8.31839 -1.96218 2.35869 8.22168 -2.15218 4.10243 
5.45941 -2.07137 7.63701 6.91535 -1.82799 8.12149 8.23816 -2.19119 5.73424 
8.07138 -1.95638 7.4518 8.08513 -1.10663 8.86265 6.79229 -2.45328 4.95723 
5.47009 -2.35776 5.8045 5.45731 -2.38446 4.16337 4.01152 11.3576 1.84187 
4.10114 11.544 7.81844 9.30677 10.3325 4.90854 8.9664 10.2861 7.81324 
8.8791 10.2197 1.8667 6.77344 10.9099 9.07837 1.2556 10.5336 8.79364 
0.921012 10.5055 6.27054 6.63018 10.991 0.364446 0.843328 10.6597 3.35901 
1.43709 10.0936 0.698111 4.0258 11.6997 4.88961 7.05175 11.6356 3.2946 
7.0651 11.6439 6.4182 8.78218 9.73053 8.95405 9.23204 10.3872 6.44146 
9.23882 10.4169 3.47718 8.67172 9.91316 0.646371 5.54174 11.3882 8.94737 
4.07513 11.1242 9.02132 2.57085 10.8252 8.31955 2.49992 11.2833 7.07212 
1.08892 10.4445 7.61365 5.44876 11.262 0.574143 3.94782 10.9489 0.3347 
2.59105 11.0251 2.72483 2.561 10.9007 1.04064 1.16263 10.4145 2.00473 
0.907706 10.5209 4.82701 2.40661 11.1287 4.16524 4.00203 11.5014 3.49554 
2.4173 11.2562 5.53115 4.04634 11.6491 6.33286 5.45529 11.6685 2.66309 
6.89987 11.2842 1.592 7.80983 10.7659 0.814736 8.29544 11.1581 2.33169 
8.21235 11.0993 4.08223 5.56268 11.7869 7.31525 7.0526 11.414 8.11359 
8.35571 11.1701 5.69688 8.19735 11.1526 7.27525 8.0404 10.6215 8.64913 
7.26033 11.9043 4.9089 5.54317 11.8698 5.63862 5.58321 11.679 4.22418 
1.77953 4.1076 -1.84094 7.79302 4.20373 -1.88897 4.93066 9.40063 -1.39173 
7.59935 8.87682 -1.22122 1.9221 8.93738 -0.973901 9.16293 6.64663 -1.39847 
8.59102 1.69331 -1.04433 6.14636 1.21342 -1.46628 0.204634 6.60753 -1.17145 
3.38751 1.12906 -1.43704 0.894215 1.74617 -0.765127 4.93627 4.1071 -2.52824 
3.41875 6.84863 -2.26291 6.46305 6.94802 -2.3868 8.84159 8.53418 -0.531012 
6.36474 9.40573 -1.37162 3.32092 9.34582 -1.16556 0.753022 8.62731 -0.25503 
8.81992 5.56099 -1.61738 9.0371 4.19771 -1.37492 8.3194 2.95319 -1.45564 
7.00534 2.70532 -2.00015 7.31698 1.51621 -1.16633 0.634672 5.43444 -1.40412 
0.389246 3.97915 -1.26451 2.6438 2.70753 -1.7591 1.1298 2.6643 -1.43329 
2.16109 1.36574 -1.25533 4.79173 1.01786 -1.70868 4.14031 2.74566 -1.98931 
3.40661 4.1909 -2.10976 5.57206 2.73017 -1.99775 6.40298 4.13649 -2.12877 
2.5065 5.4727 -2.09518 1.67459 6.75508 -1.80812 0.790054 7.74529 -1.13334 
2.44299 8.13314 -1.79187 4.05131 8.32637 -2.08166 7.291 5.50897 -2.37936 
8.04787 6.89428 -2.02685 5.60778 8.31761 -2.13293 6.96537 8.03381 -2.07079 
8.4841 7.821 -1.45046 4.84678 6.81006 -2.43346 5.6268 5.46996 -2.47651 
4.12354 5.46589 -2.33829 1.90959 4.23832 10.9014 7.7198 4.2674 11.0117 
4.83407 9.26532 10.6509 7.59593 8.7752 10.2634 1.93883 8.75893 10.2015 
9.01787 6.50783 10.4697 8.42987 1.89587 10.1341 6.04018 1.34395 10.5897 
0.397432 6.46234 10.4184 3.4841 1.24659 10.5384 1.00836 1.8347 10.0302 
4.92415 4.07978 11.3067 3.31168 6.81795 11.4388 6.43602 6.74359 11.3081 
8.71983 8.51602 9.81102 6.43125 9.28654 10.5379 3.33067 9.18752 10.641 
0.67229 8.53512 9.7356 8.7516 5.41895 10.7781 8.89056 4.13312 10.4837 
8.20421 2.97347 10.5152 6.88218 2.87541 10.8818 7.24481 1.58828 10.4192 
0.634228 5.41026 10.7555 0.526389 4.14679 10.4736 2.73871 2.79648 10.8398 
1.36031 2.95312 10.5256 2.30512 1.43802 10.3798 4.86134 1.28318 10.6486 
4.2237 2.7444 11.0129 3.40646 4.14676 11.1958 5.59711 2.70481 11.0536 
6.2934 4.16496 11.2417 2.50293 5.46163 11.2417 1.6298 6.67434 11.0746 
0.89776 7.38291 10.5407 2.52052 7.88938 10.9425 4.1192 8.14175 11.1807 
7.24175 5.4665 11.2106 7.78952 6.65413 11.034 5.63525 8.11901 11.2975 
7.05514 7.89982 10.9258 8.32532 7.63511 10.5118 4.95174 6.86412 11.5206 
5.67189 5.47398 11.3922 4.17197 5.47945 11.5296 
POLYGONS 709 2124
OFFSETS vtktypeint64
0 3 6 9 12 15 18 21 24 
27 30 33 36 39 42 45 48 51 
54 57 60 63 66 69 72 75 78 
81 84 87 90 93 96 99 102 105 
108 111 114 117 120 123 126 129 132 
135 138 141 144 147 150 153 156 159 
162 165 168 171 174 177 180 183 186 
189 192 195 198 201 204 207 210 213 
216 219 222 225 228 231 234 237 240 
243 246 249 252 255 258 261 264 267 
270 273 276 279 282 285 288 291 294 
297 300 303 306 309 312 315 318 321 
324 327 330 333 336 339 342 345 348 
351 354 357 360 363 366 369 372 375 
378 381 384 387 390 393 396 399 402 
405 408 411 414 417 420 423 426 429 
432 435 438 441 444 447 450 453 456 
459 462 465 468 471 474 477 480 483 
486 489 492 495 498 501 504 507 510 
513 516 519 522 525 528 531 534 537 
540 543 546 549 552 555 558 561 564 
567 570 573 576 579 582 585 588 591 
594 597 600 603 606 609 612 615 618 
621 624 627 630 633 636 639 642 645 
648 651 654 657 660 663 666 669 672 
675 678 681 684 687 690 693 696 699 
702 705 708 711 714 717 720 723 726 
[...]
CELL_DATA 708
SCALARS scalars double
LOOKUP_TABLE default
-5.3934698427 -4.6007983562 -5.5927557371 -6.0892320983 -5.7585738552 -6.0336184897 -6.5296599239 -5.5597307547 -5.9974749505 
-5.5567161092 -6.1959522372 -5.4451447875 -5.6417874676 -3.3212500681 0.496003215 0.22548991443 -2.2797188167 -0.50551634655 
0.68931771173 -0.41527572702 2.7241456347 3.3147126473 4.0796965327 2.5596520284 4.807289357 6.7996571449 7.1346109253 
5.4163377876 5.4249794927 5.9256239815 2.5692042949 4.3232190428 2.4840188491 -2.1735844207 -2.9074887562 0.42370797107 
-1.2511730272 0.10133458359 0.026895408928 1.7414030618 5.3366993305 5.2001882856 5.6475679516 6.9824184008 5.2357594495 
5.6791457014 5.3403235577 5.8269785907 4.1709875887 1.4824558733 2.1144163473 0.72347905996 4.8617977581 4.801072247 
4.8484682814 5.9809570187 4.2819238689 6.4369558091 5.5632946635 0.98054386262 1.2419854073 1.3890177945 3.5942802432 
1.614257143 1.0852071277 1.3559062236 1.6988526176 3.8307338408 4.5676838375 4.3708288764 -0.40900350432 -1.6174015278 
-0.86060125031 -0.2090810917 -4.3566913851 -5.0003488916 -5.6440633027 -2.9251064326 -4.5623121791 -5.4483223622 -5.5570960173 
-5.0226071175 -4.9101220962 -2.9557711005 -2.2807317961 -3.5494289031 -0.90431537784 -1.0110859034 -1.4867625407 -0.42991196669 
-2.6190254332 -5.7466948397 -5.7348984521 -5.1833282507 -3.6847041478 -4.6066466203 -4.8142009556 -4.8888947705 -4.9253584991 
-2.6303448595 -2.7757265847 -3.6978521949 -5.3107988184 -2.1897005848 -2.36909435 -2.443644967 -0.76510185702 -0.093381732672 
0.53777249723 0.25138151755 -0.44513320847 0.29556111951 0.38170784922 0.076354830303 0.14572039718 -0.7882666539 -1.1057993053 
-0.77673811556 -4.4692739914 -3.6628672765 -4.6063903713 -3.7805652326 -4.4839353758 -3.942007324 -3.7815074961 -3.9204471587 
-3.886683821 -4.0648437978 -5.7501696085 -3.6205726955 -3.9292829586 -2.5060360785 1.4114230875 1.5770499102 -1.8329963699 
0.40968239196 1.4006646081 -0.1394518088 2.6785330951 1.1000692615 3.7381677849 3.4036909485 5.5302174491 4.4382601613 
4.005045325 4.4100813749 4.809293904 3.4483684715 1.642414825 -0.9412969877 1.2411498066 -2.4858866285 -2.9490747796 
1.4545153706 -1.0251942854 -0.67954319574 1.1955837727 2.2633902727 3.8978685045 3.9249455328 3.7000185177 5.2628941744 
4.9681137546 5.0697553889 5.3125384088 5.1922338071 3.4325808163 1.7491032824 2.5306469684 1.8143979892 4.0247549908 
4.9956558666 4.8801401322 5.316998191 3.3496348846 5.3194892452 5.728252944 1.9080228224 1.9386967674 2.3076509209 
2.7180033209 1.4320644586 1.698560884 2.16810009 1.7514842297 2.8369866037 2.8344245274 2.1246852268 0.7345375695 
-1.2560883079 -0.17801088208 0.60458667094 -3.6388938589 -3.7454522242 -4.0386655058 -1.5343789976 -3.0702872181 -4.0740752039 
-3.9925179947 -4.1457756974 -2.7844304309 -1.5810280598 -1.6951835545 -2.7385980944 -0.6206060802 0.11030764791 -0.20996856045 
0.52436257214 -1.048376248 -4.3612109192 -4.0061428145 -5.2431576601 -2.9292436883 -3.540160943 -4.6815565911 -3.4027560922 
-2.5288622074 -1.6863703549 -0.68926081415 -1.9921830136 -4.620155725 -0.53386265232 -1.3464175954 -1.2311287853 0.55366797529 
-0.17063083239 0.39793908988 -0.51907168092 0.14496944341 0.7567496723 1.1093289175 0.43031571087 0.50329100059 -0.079518701717 
-0.025506193413 0.2989257104 -7.6095269539 -3.8566873503 -8.4841694884 -8.2230882211 -8.4772219415 -8.202716505 -7.6509842351 
-8.6916220545 -8.8016520151 -8.583155738 -5.9806183183 -6.0952841791 -2.4626436513 -2.464476526 -4.7228751698 -8.5740905864 
-5.9329395954 -4.7486171045 -6.1755643718 -5.7254400595 -6.1778415934 -8.8347083221 -7.9526077819 -9.0699396328 -8.7157720446 
-8.5813778014 -7.5986838326 -5.0484270892 -7.3877843211 -4.7574867722 -8.5163866513 -6.9928612248 -6.8901838769 -4.7474626973 
-7.6545923984 -7.5735834015 -8.8896807233 -6.4728888154 -6.4728267417 -7.4639709897 -9.3566866617 -9.3428247209 -7.9291605571 
-9.2043273873 -8.0750254764 -7.1565260351 -5.5100624613 -5.7195003605 -7.3583519157 -8.1051952892 -7.3857921302 -8.9234011897 
-7.6500074923 -7.3513699252 -5.7826544426 -8.9207302362 -8.5686448983 -9.727009245 -8.7252289327 -8.5407540086 -9.7619097634 
-9.9286491378 -9.8745166512 -9.617654157 -9.8678926432 -9.5087711463 -9.6974623552 -9.8731972127 -9.6144587352 -9.7122575953 
-9.775526534 -9.37160763 -8.1528537238 -9.815496945 -9.3553532974 -4.848692407 -5.6668309719 -9.8263016276 -5.6542713265 
-8.6638886061 -8.6810572457 -8.5408397628 -8.8130883989 -9.7796679321 -8.1478759555 -8.7954269714 -8.9323453912 -9.5103100986 
-8.4245633444 -8.9417243649 -9.7147539288 -8.5562940778 -8.1917959635 -8.8583342478 -4.6081572983 -5.0374308044 -7.9608868385 
-3.8462417575 -4.660706266 -8.283162301 -9.5048775821 -8.4038653291 -9.0904709628 -9.8749125072 -9.8404809579 -9.8116516779 
-9.8605845286 -9.5172132822 -9.9482844423 -9.8787256699 -9.93657869 -9.9291148624 -9.6867998237 -9.9192086855 -9.9605278743 
-9.9577701676 -9.9661768077 -9.9797443869 7.7258941354 1.6835990878 7.4373612871 7.5220413776 7.8477987532 7.6667952658 
7.6087809845 7.7673319954 6.3026477839 6.0454781652 6.5240128739 7.1510797232 5.3342249047 5.5568347472 8.6399278377 
9.3420273311 6.0245382337 6.5082808919 6.6367148143 6.0912580305 6.5420959223 8.8830997545 9.7226306733 8.716315896 
8.603324635 8.4587144206 8.0100012589 4.8386162918 7.8385693593 3.8863369266 8.9636349289 9.3885905446 8.7381718175 
3.4773460897 7.9362657221 7.9333805932 9.5456534882 8.5388095597 8.5265768606 9.0156331579 9.6162111843 9.3098030019 
8.1532392227 9.2865457918 7.241360689 8.0939044154 6.8267919862 7.7311125144 8.1588046402 7.4522842211 7.9980478101 
9.5420138808 8.781829576 8.7123905358 5.9967691445 9.2308961164 8.5740512706 9.6603954232 8.0687896801 8.4473050724 
9.5719048437 9.5187019845 9.5813945551 8.9538567893 9.6707995558 9.7786533579 9.7263404124 9.5103914384 8.9641530427 
9.3680528849 9.1050235383 9.7649057397 9.4919278579 9.722888377 9.746189554 7.3949816246 6.428176076 9.1901843953 
6.8322659375 6.3676145553 7.6551097768 8.1633415283 6.1694248064 9.55804326 9.1722149924 9.1484372578 9.6857550501 
9.7587929214 8.2100726852 9.6472509608 9.2886768813 7.8457076122 7.2235998641 7.7335413258 6.5747063166 6.2632566176 
7.3396630463 3.2021094407 6.6895102559 7.8403751662 9.4172065753 8.126300126 7.8291354484 8.7505694818 8.2795422615 
7.9699780455 9.9129996388 9.8754976262 9.909566852 9.9116095077 9.9967294826 9.8906251447 9.8291481224 9.9361610015 
9.8988257893 9.8547538806 9.8271002401 9.8775942411 4.9837356513 4.7699009308 5.3365066502 6.0595068431 5.4817307155 
5.5141848816 5.2226767199 5.5547959516 5.4551158842 5.3998757244 5.769578691 5.9601682905 5.0935261495 5.5431711319 
5.0715341968 -1.0308507078 -0.43143362318 1.9346098449 -0.29713603604 -2.3166992765 -0.58216221831 -1.4417390756 -2.8222187828 
-4.8155011782 -4.4780628142 -1.676614534 -2.0964571076 -5.2484338942 -3.7003600341 -3.2762935473 -1.5787426262 -1.4378818139 
-2.6156048445 -5.1673981323 1.1510245655 3.3262512775 -0.24418160915 -0.36628943671 0.29709233192 0.085329453859 -1.8094176695 
-2.8296385296 -4.5335835994 -2.8285098984 -4.9053179123 -4.8082807197 -4.9650227178 -5.0902673862 -5.1359343233 -4.8710848294 
-4.1139204525 -0.92242500102 -1.9376179661 -1.7265039062 -4.5189270415 -4.9449004327 -3.8774753414 -2.6096511439 -4.8765791764 
-5.8388757127 -1.5185670895 -2.1465031063 -1.5569747801 -3.3315564765 -2.4049279518 -0.16666542032 -0.90858789304 -3.632819896 
-2.5332534857 -2.3087803009 -1.6309822692 0.098306018517 0.34944329588 0.5104769819 -0.14490911267 4.48628417 5.9527160231 
2.0204828419 5.7730973268 5.5560909413 5.5758699144 5.6503756348 4.9951162925 1.5457307964 2.3846981456 2.373945081 
-1.6007665049 1.2374529631 0.19162941549 -0.16249323113 2.3788133007 5.4702705849 5.2113379821 4.9847576094 3.7501311302 
4.5167892492 4.9358054389 3.7956951473 3.4464846017 2.629838532 1.7553228 3.4330935522 5.5422488377 1.8958329422 
1.6823920554 2.1044130173 0.27980551008 -2.8604471654 -0.97004021688 -2.179294078 -0.21907140149 -0.23754710871 -0.99251676633 
-0.93016134152 0.84008860742 -0.064029703295 0.46546845828 -0.21268852019 1.9968100372 2.1779866502 4.1873219415 6.1501772869 
5.2990155037 6.4203370584 2.9475600146 5.5955951844 6.6249521737 4.7435075948 5.0957162817 5.0531923127 4.8389260338 
6.1812118209 4.0903599229 -1.6531473004 -1.5497566724 1.9305268846 0.9637659014 -1.6622900557 0.16945758406 -2.5254757972 
-2.6455610756 -2.8402320898 -2.5532456946 -3.468271543 -3.5242317552 -3.4221977295 -3.1507479156 -2.6555850931 -2.0231104332 
-2.3316006829 -2.0787328645 -3.3255691873 1.0484251928 1.4281463582 -1.8630980712 1.5408223631 0.19974113024 -1.6732291826 
-1.7753390784 -2.666558531 -2.9299610572 -2.4116677282 -4.4078863442 -4.3802788771 -4.3562044541 -4.4521258229 -4.4591554473 
-4.3159482185 -2.8034916196 -1.5605346157 -2.1072927193 -1.7625676815 -3.4329310172 -3.8441194794 -3.9898309891 -2.4511009017 
-4.0170344215 -4.2045933229 -1.5620041557 -1.7430726686 -1.9703786187 -2.7049112522 -1.5394119869 -1.9229909049 -1.9891107201 
-1.9732098355 -3.0355484161 -2.6980008736 -2.5649376034 -1.476303596 1.657009583 -0.1664333811 -0.46948364829 5.958551518 
5.1912022479 2.9630918165 3.8003711213 4.5916605215 5.5561798437 3.3318701483 4.6324512959 2.6729721754 1.4881581454 
3.3327067266 -0.5028431777 0.52495332241 1.4804780704 0.15711709073 1.6664827316 5.3098643088 4.4601047031 3.7610767737 
3.189515677 1.5819864103 4.120836423 5.4597483082 3.1785675869 2.3076919316 2.0528447868 2.8392551572 4.5741347562 
0.94072868001 2.2318197243 2.1240008077 -0.033301965885 -0.96951434747 -0.8931825659 -0.59693361364 -0.42075997413 -1.986005743 
-1.7128438172 -1.4846671539 -1.0913585411 0.35060828505 -0.18779865888 -0.44755654522 
