# vtk DataFile Version 5.1
vtk output
ASCII
DATASET POLYDATA
POINTS 356 float
0.778093 0.407453 0.29831 0.876639 0.488041 9.23136 0.332602 9.14465 0.609392 
0.290561 9.18334 8.86922 8.8862 0.631737 -0.143385 8.97219 0.618991 9.37021 
9.16695 8.68826 0.61083 9.3284 8.8612 8.88717 0.18644 -0.31605 1.48324 
0.00642089 -0.746014 2.70772 -0.144327 -1.00279 4.20388 -0.110559 -0.995052 5.88008 
0.0205394 -0.720736 7.16896 0.166283 -0.219823 8.27716 -0.0890921 1.70228 0.036667 
-0.280095 2.88524 -0.575515 -0.63353 4.22733 -0.619103 -0.665596 5.56717 -0.550614 
-0.762762 6.85621 -0.262261 -0.184259 7.92387 -0.122831 0.0401477 9.45849 1.61566 
-0.191327 9.62448 2.80524 -0.464936 9.76066 4.26734 -0.491272 9.68278 5.65291 
-0.331009 9.70475 7.00231 -0.0611383 9.54757 8.09771 -0.0179927 1.81601 9.49647 
-0.196387 3.17797 9.96442 -0.57475 4.3211 10.0209 -0.791078 5.5662 9.85048 
-0.737766 6.8782 9.57686 -0.334428 7.66133 9.34632 9.82209 -0.423794 1.20845 
10.1299 -0.859912 2.49196 10.3262 -0.940706 4.00677 10.293 -0.935761 5.68864 
10.1134 -0.808161 7.29309 9.60504 -0.410016 8.39392 9.63943 1.79205 0.00621475 
9.69762 2.85203 -0.598558 10.1412 4.10512 -0.59561 10.2575 5.44123 -0.600085 
9.78343 6.64269 -0.239471 9.56999 7.67176 -0.271691 9.53704 9.2346 1.69698 
9.7957 9.42582 2.91692 10.1429 9.51388 4.31205 10.2371 9.63811 5.63416 
10.1816 9.5537 6.94266 9.67831 9.41339 8.05723 9.54422 1.83161 9.42316 
9.59906 2.93247 9.71038 9.95807 4.23 9.88485 10.1638 5.4718 10.0037 
9.99995 6.60058 9.49878 9.598 7.65045 9.56407 1.76282 0.428161 -0.416694 
2.81865 -0.337148 -0.458411 4.18597 -0.251964 -0.780912 5.58627 -0.234605 -0.902202 
6.75784 -0.110245 -0.827958 7.86323 0.230835 -0.592981 1.74002 0.512848 9.64461 
2.71599 -0.214469 9.65917 4.1151 -0.0564981 10.0063 5.49363 -0.0494862 10.0107 
6.81811 0.0929009 9.90322 7.79672 0.497863 9.74903 1.56686 9.48516 -0.178026 
2.67331 10.1908 -0.377062 4.24052 10.4304 -0.640972 5.60201 10.323 -0.72088 
7.06647 10.5093 -0.889506 8.24581 9.70633 -0.500226 1.70754 9.66027 9.44081 
2.79325 10.332 9.56546 4.12743 10.2904 9.93092 5.63067 10.3105 9.99914 
6.89994 10.202 9.9137 7.98079 9.64205 9.75202 -0.973781 0.116999 4.96588 
-1.86743 5.70387 1.77982 -1.96294 5.71156 7.89591 -0.714158 0.457732 7.92621 
-0.717525 0.466695 1.98454 -1.24595 3.07795 9.17573 -0.772338 8.18251 8.78177 
-1.34882 8.57361 6.3266 -1.21123 3.11122 0.456977 -1.2987 8.61117 3.32525 
-0.67141 8.0661 0.907846 -2.28808 5.73103 4.95029 -2.07919 2.85726 3.44936 
-2.04543 2.87511 6.47053 -0.140845 0.942972 8.79806 -0.911883 0.233849 6.5298 
-0.91729 0.260348 3.34879 -0.227081 0.882112 0.75575 -1.63561 4.22905 8.82728 
-1.46023 5.83206 9.00254 -1.4542 7.18656 8.42371 -1.89845 7.20064 7.15346 
-1.12958 8.38709 7.63005 -1.54812 4.34564 0.668401 -1.41409 5.80417 0.489126 
-1.79829 7.14023 2.50954 -1.42024 7.0554 1.18367 -1.02092 8.46264 2.0732 
-1.42724 8.61607 4.8536 -2.02625 7.22964 4.14306 -2.1785 5.77512 3.42521 
-2.03242 7.27767 5.73907 -2.24936 5.71892 6.45196 -2.0637 4.36301 2.607 
-1.78583 2.83801 1.66724 -1.17586 1.6959 1.0939 -1.527 1.56063 2.54483 
-1.73251 1.37128 4.13665 -2.07735 4.35393 7.38874 -1.77998 2.70883 8.09185 
-1.72022 1.26565 5.74223 -1.53454 1.50846 7.31119 -1.17765 1.59788 8.50605 
-2.11708 2.86666 5.00021 -2.23438 4.31512 5.68267 -2.21453 4.35083 4.26054 
10.8641 0.340019 4.95828 11.2156 5.66869 1.82946 11.2932 5.67343 7.96268 
10.3108 0.364178 7.85303 10.6012 0.267231 1.73708 10.7798 2.72414 9.31227 
10.3443 8.04287 8.54966 10.9124 8.59801 6.30498 10.784 2.76253 0.362144 
10.8813 8.34546 3.49766 10.2504 7.84112 0.925697 11.5626 5.725 4.92987 
11.5938 3.16037 3.36996 11.5896 2.93253 6.55814 9.79664 0.807273 8.82096 
10.7605 0.339605 6.36745 10.835 0.37935 3.20114 9.88563 0.779761 0.603101 
10.8571 4.21955 8.75977 10.8712 5.71127 9.05908 10.9455 6.99332 8.48294 
11.203 7.15274 7.08141 10.7464 8.37121 7.52512 10.9785 4.21834 0.559407 
10.7564 5.70925 0.408644 11.0491 6.99568 2.72527 10.7045 6.81058 1.23783 
10.6664 8.24892 2.08742 10.864 8.33724 4.94708 11.4295 7.15473 4.12137 
11.5178 5.70087 3.39414 11.5134 7.11854 5.64543 11.6964 5.73642 6.50211 
11.5149 4.39494 2.42979 11.237 2.76137 1.44798 10.8074 1.51132 1.0708 
11.1994 1.46067 2.35199 11.3963 1.46107 4.06409 11.6217 4.3229 7.49367 
11.3665 2.61892 8.20954 11.474 1.51893 5.67719 11.1844 1.32101 7.29865 
10.4929 1.4145 8.53406 11.6679 3.04115 4.9538 11.6605 4.38732 5.77141 
11.6527 4.40592 4.13268 4.11258 -1.8571 1.50593 4.0831 -1.72668 8.22426 
9.23611 -1.71134 4.91784 9.00369 -1.22382 7.94476 9.26559 -1.30662 1.52562 
6.8173 -1.06441 9.2411 1.44984 -0.552912 8.8775 1.04881 -1.45791 6.48489 
6.81683 -1.18633 0.095074 1.03203 -1.60876 3.35285 1.61536 -0.710935 0.602958 
4.22903 -2.27469 4.97547 6.79768 -2.34563 3.29673 6.83368 -2.32474 6.58108 
8.66102 -0.378654 9.05318 9.1899 -1.5939 6.44303 9.21841 -1.45485 3.20794 
8.72701 -0.394303 0.452388 5.50791 -1.38995 8.99786 3.95389 -1.11876 9.22894 
2.56212 -1.18593 8.60261 2.68749 -1.79261 7.38572 1.11049 -1.09502 7.81704 
5.51751 -1.46967 0.270212 4.0045 -1.1909 0.138613 2.78946 -1.89174 2.55976 
2.63794 -1.30358 0.956626 1.20602 -1.33545 1.93508 0.923171 -1.64017 4.94432 
2.85748 -2.07312 4.16268 4.16767 -2.25784 3.34071 2.87039 -2.02337 5.69315 
4.13832 -2.20173 6.65321 5.414 -2.20669 2.33176 6.97805 -1.95116 1.33518 
8.1682 -1.33228 0.654057 8.32407 -1.97065 2.35504 8.23147 -2.17064 4.10069 
5.45941 -2.07137 7.63701 6.91535 -1.82799 8.12149 8.23816 -2.19119 5.73424 
8.07138 -1.95638 7.4518 8.08562 -1.10911 8.86598 6.79022 -2.41193 4.96038 
5.47056 -2.35083 5.80445 5.45573 -2.41863 4.16393 4.01269 11.3517 1.81073 
4.11794 11.5058 7.82824 9.31755 10.3623 4.89424 9.1092 10.3598 7.7957 
9.01163 10.458 1.87167 6.7416 11.047 9.09984 1.41003 10.2571 8.72923 
0.844981 10.5673 6.29165 6.56262 10.8326 0.451756 0.908426 10.5485 3.36959 
1.42611 10.0913 0.677424 4.03123 11.6917 4.90345 7.07297 11.6276 3.266 
7.09621 11.7445 6.40401 8.74315 9.77658 8.81422 9.32442 10.4612 6.44201 
9.17639 10.3982 3.45293 8.6327 9.77509 0.545254 5.4586 11.2025 8.88378 
4.07291 11.0094 8.90934 2.49864 10.939 8.38331 2.51558 11.2119 7.06832 
1.04841 10.4503 7.59335 5.43985 11.2364 0.555215 3.95215 10.9123 0.340201 
2.56687 11.0997 2.70344 2.58456 10.8225 1.04974 1.10909 10.4401 1.92795 
0.855535 10.6173 4.84975 2.38019 11.202 4.17057 3.98779 11.6238 3.47188 
2.42253 11.2358 5.54333 4.03502 11.6605 6.3509 5.45678 11.6762 2.64553 
6.90922 11.3927 1.55573 7.69091 10.6142 0.911532 8.18318 11.1304 2.34405 
8.23123 11.1605 4.07374 5.57585 11.7894 7.33298 6.95801 11.5004 8.02018 
8.38833 11.3006 5.65602 8.19407 11.2337 7.24804 7.90353 10.854 8.76255 
7.19153 11.6988 4.92836 5.54981 11.8454 5.64963 5.57403 11.8203 4.21914 
1.79059 4.11181 -1.79432 7.85473 4.24899 -2.03903 4.92723 9.43029 -1.42223 
7.53199 8.78522 -1.10684 1.92774 8.92802 -0.966604 9.15434 6.64528 -1.39648 
8.50747 1.7307 -0.970883 6.13983 1.17263 -1.56407 0.204634 6.60753 -1.17145 
3.37794 1.10689 -1.47872 0.893244 1.74501 -0.7673 4.93472 4.14792 -2.22967 
3.4123 6.85292 -2.26513 6.44993 6.94083 -2.31921 8.79104 8.50784 -0.507236 
6.34388 9.34823 -1.30962 3.32044 9.3577 -1.16539 0.757508 8.6287 -0.250003 
8.83711 5.54659 -1.69245 8.99701 4.2248 -1.27515 8.33446 2.97088 -1.4517 
6.95094 2.72074 -2.02993 7.30677 1.41433 -1.39347 0.633024 5.43438 -1.41226 
0.389246 3.97915 -1.26451 2.62199 2.68864 -1.83242 1.15621 2.69942 -1.34123 
2.13893 1.36327 -1.27145 4.77452 1.08244 -1.53619 4.11968 2.71606 -2.06581 
3.38392 4.17834 -2.24565 5.57385 2.68525 -2.14755 6.44288 4.09913 -2.37053 
2.49324 5.47519 -2.12683 1.68723 6.75299 -1.7617 0.787998 7.74447 -1.13619 
2.44691 8.12662 -1.77641 4.05364 8.3067 -2.04561 7.24811 5.55923 -2.30586 
7.96924 6.85484 -1.85818 5.59197 8.28499 -2.05583 6.97319 8.08675 -2.38051 
8.62407 7.84656 -1.57953 4.84285 6.82061 -2.46153 5.63579 5.49245 -2.48015 
4.10093 5.46574 -2.4035 1.91033 4.23904 10.8953 7.64015 4.17845 10.961 
4.8322 9.21146 10.5338 7.49112 8.97067 10.5892 1.91429 8.76407 10.2117 
9.15823 6.44033 10.6571 8.4519 1.87072 10.0787 6.04034 1.32243 10.5885 
0.415782 6.44925 10.386 3.48801 1.26366 10.4738 1.00836 1.8347 10.0302 
4.90212 4.07081 11.1942 3.25213 6.7975 11.4786 6.38373 6.83229 11.8055 
8.71511 8.46277 9.85683 6.3806 9.30715 10.6587 3.32565 9.08782 10.5011 
0.737321 8.42731 9.60003 8.6759 5.38634 10.6464 9.04483 3.93654 10.9055 
8.21146 2.94818 10.5223 6.86434 2.87185 10.8752 7.31778 1.48694 10.5832 
0.656059 5.40294 10.6975 0.526389 4.14679 10.4736 2.74749 2.81021 10.7688 
1.36031 2.95312 10.5256 2.30512 1.43802 10.3798 4.84837 1.29868 10.5935 
4.20516 2.71127 11.0581 3.39079 4.13937 11.2284 5.60681 2.65354 11.178 
6.3039 4.11804 11.2869 2.51699 5.46617 11.1407 1.62222 6.6552 11.0257 
0.828038 7.41173 10.6044 2.50627 7.88785 10.897 4.11222 8.16161 11.1641 
7.21327 5.43912 11.2257 7.70862 6.6459 11.071 5.57518 8.14597 11.2911 
7.00143 8.01071 11.0503 8.43047 7.64235 10.6791 4.90069 6.86387 11.3716 
5.64901 5.48508 11.4376 4.14012 5.47448 11.6087 
POLYGONS 709 2124
OFFSETS vtktypeint64
0 3 6 9 12 15 18 21 24 
27 30 33 36 39 42 45 48 51 
54 57 60 63 66 69 72 75 78 
81 84 87 90 93 96 99 102 105 
108 111 114 117 120 123 126 129 132 
135 138 141 144 147 150 153 156 159 
162 165 168 171 174 177 180 183 186 
189 192 195 198 201 204 207 210 213 
216 219 222 225 228 231 234 237 240 
243 246 249 252 255 258 261 264 267 
270 273 276 279 282 285 288 291 294 
297 300 303 306 309 312 315 318 321 
324 327 330 333 336 339 342 345 348 
351 354 357 360 363 366 369 372 375 
378 381 384 387 390 393 396 399 402 
405 408 411 414 417 420 423 426 429 
432 435 438 441 444 447 450 453 456 
459 462 465 468 471 474 477 480 483 
486 489 492 495 498 501 504 507 510 
513 516 519 522 525 528 531 534 537 
540 543 546 549 552 555 558 561 564 
567 570 573 576 579 582 585 588 591 
594 597 600 603 606 609 612 615 618 
621 624 627 630 633 636 639 642 645 
648 651 654 657 660 663 666 669 672 
675 678 681 684 687 690 693 696 699 
702 705 708 711 714 717 720 723 726 
[...]
CELL_DATA 708
SCALARS scalars double
LOOKUP_TABLE default
-5.3934698427 -4.6007983562 -5.5927557371 -6.0892320983 -5.7585738552 -6.0336184897 -6.5296599239 -5.5597307547 -5.9974749505 
-5.5567161092 -6.1959522372 -5.4451447875 -5.6417874676 -3.3212500681 0.55100455782 0.17492986944 -2.2797188167 -0.50551634655 
1.6437295431 -0.38410399057 2.0219916163 4.4661952189 4.7031484304 4.298948086 4.3432465331 5.7907711974 5.9020062495 
5.8574510165 5.6181891337 4.5680219871 1.7150607248 3.2128597859 2.4194693247 -2.1735844207 -2.9074887562 0.4641587739 
-1.2511730272 0.10133458359 0.026895408931 1.8777380621 4.3040726132 4.7397677957 4.1870696623 6.7589651613 5.7132369538 
5.6813172038 6.5764713715 6.5891778647 4.6401068304 1.7013180426 2.3382229231 0.72347905996 5.5485838106 4.7300395202 
6.3288584881 6.3976716054 3.9073078738 6.2152977188 6.4997651815 1.431958774 1.3655161895 1.7372438479 4.2497487188 
1.4976174089 1.3848157108 1.8299293336 1.6746947879 4.441516367 4.2846726863 4.0332410447 -0.17001644927 -1.6174015278 
-0.79984895714 -0.17798477867 -4.3566913851 -5.0003488916 -5.6440633027 -2.9251064326 -4.5623121791 -5.4483223622 -5.5570960173 
-5.0226071175 -4.9101220962 -2.9557711006 -2.2807317961 -3.5494289031 -0.28190657229 -1.1380871568 -1.4867625406 -0.49166183892 
-2.6190254332 -5.7466948397 -5.7348984521 -5.1833282507 -3.6847041478 -4.6066466203 -4.8142009556 -4.8888947705 -4.9253584991 
-2.6303448595 -2.7757265847 -3.6978521949 -5.3107988184 -2.1897005848 -2.36909435 -2.443644967 -0.79261164678 0.099615396366 
-0.24672743097 -0.61494651948 -0.40704860383 -0.17083911458 0.28453749119 -0.28191571094 -0.456825145 -0.773469328 -1.0353987246 
-0.73331808355 -4.2062847532 -3.5009900821 -4.4848869981 -4.0290111113 -4.3313378449 -3.992673496 -3.6935694414 -4.037562444 
-4.2867312509 -4.2088866344 -5.5758310965 -3.7269456025 -3.8808745406 -2.2829025994 -0.81053881366 -1.2290611479 -2.0369630209 
1.8646640112 3.7564045742 -1.8586002992 1.7628887018 4.2356262699 2.865067835 2.7747000898 4.8745045215 5.0298497381 
5.4803663996 5.1361312854 5.1595807715 2.4181354381 1.0520560233 3.1605404512 2.8154080647 -2.231893088 -3.8868224572 
1.1039976274 -0.29081349656 -0.72480994984 0.85177670618 2.8479267072 2.1216255476 2.6285590142 1.6844206499 6.2780301978 
5.9123126932 5.9865098312 6.8413557591 6.5663201857 1.9988070354 2.6173747103 4.2196245346 4.432006624 6.3705493858 
1.6014699494 4.8302353273 5.7522190077 2.7550406418 5.2766792193 4.7694389445 2.4662575163 0.75649438008 1.9639092467 
2.9312663528 0.78772648288 2.1716579047 2.4884541442 0.62604328061 4.1649572373 4.2386042573 4.527312498 0.91206877654 
-0.70955606001 -0.65762066646 0.022930305657 -4.3759139393 -2.9323373126 -4.1165643185 -1.6000962214 -2.8959985626 -4.2125094058 
-4.0742967085 -3.9073630625 -3.0545819589 -1.3509037951 -1.9694686533 -2.3045803292 0.27870646353 -0.99908717455 1.2324464096 
0.91371346228 -1.7452604768 -4.2502531009 -3.8149878475 -4.7212438111 -5.3165021321 -3.4727943623 -4.3497973818 -3.0453209841 
-3.0350288882 -4.3965424402 -2.0223086852 -4.3440739563 -4.4628435354 -1.0692324451 -1.3802794003 -1.4600314497 -0.37300672951 
1.3838118306 0.19479886663 -0.38010743167 0.022763992963 0.86387043321 1.3851707953 0.57530284258 0.70495670358 -0.17806626036 
-0.23197089708 0.082992437865 -6.6886488483 -4.0136187936 -8.3756457562 -8.1054910469 -8.4381458863 -8.1095323498 -6.7623808892 
-8.5681610485 -8.6938905598 -8.4634241311 -5.8694049311 -4.5517929896 -4.9075531632 -4.9421170528 -4.1540214269 -8.5740905864 
-5.9209015561 -4.9289418333 -6.0282722899 -5.7149064111 -6.0283571519 -8.8347083221 -7.9526077819 -9.0699396328 -8.7157720446 
-8.5813778014 -7.5986838326 -5.0484270892 -7.3877843211 -4.7574867722 -8.5163866513 -6.9928612248 -6.8901838769 -4.7474626973 
-6.4297325532 -6.2441712701 -8.9552979058 -6.8905520145 -6.8585973256 -6.9177601493 -9.2088767658 -9.4509821528 -8.208013456 
-9.2601569408 -8.0750254764 -7.1565260351 -5.4808461092 -5.7195003605 -7.3583519157 -8.1051952892 -7.8237247384 -8.9011025052 
-7.7731902643 -6.81270323 -5.6717929141 -8.9207302362 -8.5686448983 -9.7395942959 -8.7252289327 -8.5407540086 -9.6824807891 
-9.8976971052 -9.7426206993 -9.617654157 -9.8580788405 -9.5087711463 -9.6974623552 -9.8577879692 -9.6144587352 -9.7214427911 
-9.7810828785 -9.4034379973 -8.3932118036 -9.8035913528 -9.3879533054 -5.477544899 -5.6042150541 -9.7881933437 -4.6587666662 
-8.4991977221 -8.5756653057 -8.3544292766 -8.818590087 -9.7477136361 -8.3627408792 -8.960027461 -8.9323453912 -9.5103100986 
-8.1814003197 -8.9417243649 -9.7147539288 -8.5301156448 -8.2062234972 -8.8583342478 -4.8309163947 -5.4626189961 -7.9667395414 
-3.7598092555 -4.2812975623 -8.1244824036 -9.5048775821 -8.4179702624 -9.0530514463 -9.9097702562 -9.8904145608 -9.874295099 
-9.8643681442 -9.5172132822 -9.9547577454 -9.8847830699 -9.9323062605 -9.9272553191 -9.6966254841 -9.9220338299 -9.9514651157 
-9.9880072542 -9.9847142486 -9.9894542105 5.389639885 4.680739479 7.3024889156 7.0640423627 7.4035589227 7.3250378134 
5.5094593406 7.5987070151 6.0924514267 7.0756418339 4.1201692249 7.6529964977 3.979985524 3.6901418488 5.9221893857 
9.0424435699 8.1087245742 7.0008868711 7.8012901147 8.0720858621 7.7745821665 9.4488604038 8.5038905951 8.9843032629 
8.9787087698 8.3919215235 8.0357757684 6.3689163432 8.0211987566 5.879536744 8.9744073451 7.9827375675 8.5027243589 
5.7287774712 9.4602532757 9.5987404673 9.4665966419 8.037493896 8.1461769599 8.7589419919 9.5031443256 9.2687697078 
8.4050897338 9.2852531295 7.9685056911 7.3840060297 6.4943440539 7.0758387056 7.4949630446 7.9256968321 8.2957024484 
9.4042029714 8.7490884091 8.5139089879 6.5589902563 8.2816651381 8.2052811803 9.292031987 8.4904063339 8.3102835418 
9.510897443 9.6247242984 9.5006159722 9.2633254572 9.6410461642 9.6615643669 9.6254613744 9.6042534751 9.2525562295 
9.2352205782 9.3185775641 9.7374646634 8.2879275364 9.8600408 9.7786707434 7.5910208039 3.5301944235 9.2045737078 
7.6881016665 6.1640789088 7.4003806026 7.8779184222 8.0514813582 9.4344520492 7.820514062 7.9145999037 9.3495676459 
9.792686057 9.1784126929 9.3461690725 9.2654515725 7.4359831229 7.507734077 7.83398966 6.8969202168 5.3118571334 
7.731779841 4.6516287765 5.1637672829 8.6872705461 9.3684036225 8.8076588396 7.4919892294 9.4723244288 9.0780461463 
9.1825138927 9.9825548368 9.8190396324 9.935533403 9.9383692904 9.9315299746 9.9377002681 9.7866148086 9.9293255995 
9.956258089 9.9411664912 9.9664380378 9.9650743771 5.1114678087 3.8968476903 5.0162453878 4.2068638703 5.4172769405 
6.1663431477 2.2869296013 5.5353031389 5.7452735004 5.536433486 5.8944287113 5.7762019138 5.9015402344 5.6936589941 
1.5038285415 -1.9247052361 -2.0996815906 4.3995503229 0.36640680361 -1.7137230125 -0.55381522387 -2.4853403552 -2.8660428104 
-3.8120698463 -3.0520674797 -4.0653541494 -4.2716605098 -4.0648776621 -3.8025060816 -4.189679486 -1.7246502825 -2.5238147211 
-1.5314582692 -3.1717732984 1.1510245655 3.3040410072 -0.36319026922 -0.31971577552 0.29470726672 0.034028231121 -1.588268177 
-3.1148616446 -3.68926755 -2.7369281665 -5.2607234719 -4.9591094918 -4.9710933787 -5.1420627729 -5.2138039211 -4.9560468106 
-3.5354836305 -1.4661800692 -2.3750578393 -1.7265039062 -4.5157711985 -4.2876644366 -4.5663308068 -2.8048361262 -4.7716182628 
-4.6760986708 -1.2937557665 -1.1813648775 -1.9355319981 -3.2938350105 -0.97423422535 -1.4819851111 -2.0805685916 -0.81054208179 
-3.5838972422 -3.2421114689 -3.2950934747 -0.43321817999 0.5353236245 0.9359611818 0.39955535321 4.2082833608 5.7854139937 
2.2625661316 5.9290488249 5.6266531427 5.5494152861 5.4471843354 5.0343349635 1.4744722008 2.2251029421 2.0804079342 
-0.23332917776 1.6128193581 1.3653475864 1.2044188706 0.49213235104 5.4689431984 2.8351632264 6.1614920175 3.0063718125 
3.8650819904 7.2964400291 5.8739571935 5.4039140272 0.19767446154 -1.76838244 -0.32384651125 4.8453694643 2.3370696862 
2.0332348568 2.6822589227 0.51198301579 -0.87570608343 -1.3346065386 -0.1558448276 0.14150970501 -1.2594959912 -0.95925157009 
-0.26283759252 -1.5947497646 0.31645955128 0.63675654461 -0.15610325137 4.4793663652 4.5997532403 4.3604654189 5.9968517492 
5.1044384213 4.6403421616 5.8170006109 4.972899969 5.2913738727 4.8565348611 5.3596544007 5.4102547628 4.3775060743 
4.6071246153 2.1402425169 1.9318545887 2.9239558772 3.6510935524 -1.914378078 -2.8793997945 -1.5269858535 -2.1550694068 
-2.4735211066 -1.9695262899 -1.1773905322 -4.5551939353 -5.0736203274 -3.6271580575 -4.1570594718 -2.4257076894 -3.4492957497 
-2.3667496749 -6.0330351443 -2.6689084395 1.9512796647 0.52468849282 -1.403414829 1.4432792305 0.31033967428 -1.2171335501 
-1.9587314505 -2.3755132094 -2.9299610572 -2.1067190561 -4.0233210903 -4.3802788771 -4.3562044541 -4.4521258229 -4.4591554473 
-4.2387332875 -2.8034916196 -1.5339216368 -2.1072927193 -1.7625676815 -3.4329310172 -3.9208544269 -4.2516295368 -2.7726510574 
-3.6333195029 -3.9719803809 -2.1770508279 -1.0849202096 -2.3003386404 -3.1365833544 -0.43418171072 -2.0518610362 -1.9472478539 
-0.54778953844 -4.0168549167 -3.4169171246 -3.4946599105 -0.81122681894 1.4618458052 -1.0132614477 -0.78057521433 4.9199034678 
5.402442189 3.4389408575 5.6264620381 4.8256364837 5.0093470938 4.3763957348 4.6759494129 2.9592547535 0.0022218085205 
2.6879718092 -0.71284276957 -0.82346294547 -1.2673894403 -0.31502012803 4.5714273168 5.1264175687 4.5734176704 3.6566118093 
4.1740258331 4.4120956256 2.7952364203 4.7864312394 4.3820358264 1.594475741 2.6931385298 1.6311410783 5.4675948885 
2.0165504716 1.9068357036 1.0680940257 -3.2089191948 -1.2083305413 -1.3810167172 -0.45557664814 -0.90778167923 -2.7868237104 
-0.83375380072 -1.1775427196 -2.2540034827 1.3666580591 -1.0697644301 1.0772130082 
