# vtk DataFile Version 5.1
vtk output
ASCII
DATASET POLYDATA
POINTS 254 float
-16.39 -13.371 -13.7493 -10.5366 -9.76074 9.53647 -9.97401 0.215635 -8.79542 
-14.3604 5.34633 7.70942 3.7798 -13.8223 -16.5164 1.87175 -7.33289 3.50179 
0.538548 6.39838 -11.5348 2.24916 2.85027 2.83654 -22.4337 -20.7622 -3.55719 
-24.3331 -21.816 6.99493 -23.9062 -20.0262 17.751 -20.4886 -20.1085 22.9515 
-23.927 -3.85359 -21.7125 -25.7279 8.7945 -29.7597 -31.397 20.7031 -29.2731 
-17.2831 9.93479 -17.981 -14.9355 -3.58098 2.57274 -19.7054 -6.88566 13.1742 
-23.4175 -6.79633 26.3709 -18.8478 -0.845892 17.9715 -16.7066 2.75826 4.70141 
-22.4433 13.8627 -2.08714 -23.2975 27.6551 -13.658 -21.3295 17.8642 -1.82352 
0.339289 -16.4438 -4.52187 -5.07126 -19.6266 7.7849 -10.9607 -22.5052 24.9358 
-4.37987 -13.1041 16.4079 -3.80182 0.0990619 -19.5424 -7.93599 11.8089 -24.9515 
-14.3611 28.6187 -28.4286 -4.42523 16.3567 -19.3754 -6.96066 -1.27769 0.796192 
-7.80289 -6.53628 12.5697 -9.77121 -11.088 24.7208 -3.88366 -3.6132 15.2255 
-3.94033 6.92217 -1.79147 -8.55059 21.7741 -7.54492 -14.5935 32.8612 -9.01196 
-2.27377 14.5795 -4.9597 -7.84379 -19.5244 -20.4803 1.78039 -24.8586 -21.5797 
14.9164 -23.3712 -25.9484 24.1116 -24.2778 -24.6976 1.72624 -15.0286 -1.08093 
20.5391 -29.2235 -14.4101 15.6847 -21.6962 -9.18085 11.0732 -12.4487 -0.406199 
1.72807 -5.04114 -15.9784 17.4737 -12.7806 -24.9891 15.8225 -4.7444 -18.1772 
9.36644 1.21452 -14.7911 -1.09812 0.919897 1.22841 11.3578 -7.7915 -2.23764 
24.2832 -17.7736 -12.9169 15.9174 -10.3811 -5.28952 -43.8299 23.051 -15.4243 
-21.7664 -6.84724 24.0827 -33.213 0.706443 24.0388 -26.9113 6.21876 5.55584 
-55.6898 25.4125 10.4955 -40.4361 0.180953 -3.43366 -39.7217 1.89701 16.3988 
-34.2586 17.502 4.12652 -33.2438 21.3664 2.49798 -41.2183 12.3748 27.3434 
-28.484 10.4784 14.5018 -34.8426 12.2437 -18.2273 -36.7586 16.4912 -3.32083 
-28.9004 17.7178 -14.2703 -22.8243 7.38813 -6.48898 -30.4054 4.33557 15.5551 
-43.0846 17.0485 5.71917 -50.932 25.2435 -2.70887 -46.5298 17.3996 17.3107 
-53.0936 13.3386 36.2732 -42.8688 9.76394 -9.37428 -35.1584 -0.213102 -14.6476 
-27.5583 -10.0435 -13.9006 -30.5315 -9.80032 -3.50578 -35.4846 -11.387 4.66383 
-44.7557 9.47465 17.636 -36.7119 2.41977 21.8101 -33.7743 -8.30939 13.3811 
-29.2433 -9.73142 21.8671 -23.9885 -6.3786 18.7992 -41.3647 1.37567 6.49324 
-49.4799 15.4741 11.9281 -48.124 14.1897 0.719599 -33.0072 27.2489 -12.5343 
-41.4446 22.2865 28.5518 -19.3285 1.4652 25.6347 -15.7529 3.48634 4.96377 
-39.9001 22.8822 10.0532 -23.7665 1.60011 2.80764 -28.4542 -3.32416 27.7529 
-23.3401 19.578 10.8564 -14.6204 21.7668 4.00223 -29.9658 11.7498 26.8909 
-12.922 8.16278 10.4692 -22.79 12.9836 -14.4741 -25.1207 15.1348 -2.39369 
-16.6877 19.5125 -15.1039 -10.7938 10.4352 -5.50533 -18.4718 0.374123 16.3609 
-28.638 13.0709 8.42163 -40.2281 24.1414 -1.19512 -30.2533 9.95019 19.3412 
-41.2654 19.7527 21.1202 -28.8306 11.3732 -3.82153 -18.7014 2.87541 -8.88551 
-7.01792 -5.99541 -10.0052 -14.4271 -9.64024 0.353776 -18.5308 -11.2995 12.4005 
-33.6387 9.29355 29.4876 -17.2998 8.36153 12.0745 -19.2829 -12.0165 26.6884 
-14.3229 -5.51807 20.0693 -7.60228 -1.22243 9.252 -27.7574 -1.76844 14.0301 
-35.1496 9.21686 16.8771 -34.3883 9.94343 5.05832 2.53017 -37.7562 -6.22586 
21.6319 -44.2971 -1.33914 -12.8848 -31.0223 22.7718 -13.0505 -30.4445 5.63765 
24.0975 -66.0909 11.6382 25.7783 -43.0579 -8.65236 3.87098 -44.2573 25.045 
18.2874 -32.8584 0.0101479 7.9251 -29.2484 5.15415 2.25316 -41.0106 16.3676 
-6.58398 -24.6223 13.0319 11.3613 -31.1013 -14.7015 -5.50865 -37.562 1.14589 
-3.9773 -27.0185 -8.33128 -15.2729 -26.7961 -7.151 -14.8802 -32.9935 14.906 
-0.158214 -46.9314 9.75094 9.80767 -50.5295 3.56128 -0.669731 -43.8171 21.3282 
13.4806 -60.9682 17.9175 13.3949 -42.0448 -7.20466 23.2946 -34.1147 -16.1997 
14.1741 -23.7947 -13.2309 8.31994 -27.679 -1.95033 5.66068 -29.4894 8.59353 
13.3245 -42.1852 12.161 9.46966 -29.7006 8.93346 2.71959 -34.8814 18.4726 
-0.461124 -32.4214 28.0446 2.78511 -20.9606 10.9393 16.4732 -43.9241 6.0729 
9.07506 -59.8802 31.4426 24.9919 -53.5484 -2.30378 20.9259 -30.8028 -14.9131 
8.52361 -18.1821 12.3127 -10.9106 -13.3674 24.1025 -7.07502 -16.2908 9.37001 
5.67653 -56.1824 27.1063 10.6233 -21.1375 2.37935 15.8379 -35.8819 8.88115 
17.3886 -19.5539 -0.112195 0.889519 -9.15475 7.19981 -1.26635 -17.9743 18.443 
-7.20545 -5.08425 14.5147 17.5519 -18.1805 -12.7213 5.78054 -24.0909 -0.64064 
9.26377 -15.4794 -12.8334 -3.66951 -12.0969 -5.03518 -16.9588 -19.9687 25.9074 
1.33109 -31.9477 11.0789 25.2708 -55.669 -2.34997 -8.05458 -32.8474 30.149 
4.04633 -30.8803 21.408 17.0397 -31.596 -3.50572 11.4786 -14.0879 -6.32768 
4.77535 -2.54373 -4.6035 2.63748 -10.9948 2.08497 3.843 -15.934 10.1889 
11.2267 -28.8463 11.8853 23.5734 -27.862 0.656786 7.10779 -25.9365 11.7022 
3.87016 -23.9892 23.8225 6.31028 -13.662 7.21194 26.4322 -36.954 -1.44837 
13.5288 -45.9419 19.5454 17.2438 -49.4431 6.65254 -13.1509 9.21285 -39.9313 
8.59552 11.7172 -38.6735 26.3684 -17.3427 -35.5449 1.03244 -11.2232 -30.2351 
14.5135 3.84397 -48.8911 5.20012 7.33626 -39.3292 16.428 15.6408 -41.0356 
0.272702 22.2255 -40.9623 6.03021 0.377219 -31.0223 29.4577 -4.65919 -45.6609 
15.2344 -11.4113 -26.9091 -17.2974 20.697 -36.2873 -5.31129 -1.46398 -37.7771 
-16.1884 0.724508 -30.0332 -11.9389 -11.2479 -26.4688 13.1559 -14.5934 -34.4881 
5.25502 -3.56633 -42.3107 1.30375 8.63543 -43.1281 19.9309 -3.96052 -44.8739 
31.1615 7.76104 -57.5735 -5.21524 18.9275 -44.2807 -10.5596 12.9638 -31.1247 
-6.95993 2.95412 -21.7801 7.02762 1.37941 -28.0411 20.157 -5.03556 -33.294 
16.2818 22.9658 -54.8989 6.85066 33.4914 -49.6351 15.5899 3.59058 -32.643 
12.4959 8.94769 -26.3255 6.45789 14.8484 -22.171 19.7572 4.37228 -43.3858 
21.4078 13.1754 -52.6344 7.00754 15.3302 -48.9814 -13.2806 22.5675 -22.8486 
5.34044 14.1341 -24.3871 14.9818 -10.2882 -16.1316 8.61403 -9.47314 -15.5906 
28.3137 8.82865 -63.7993 3.94521 14.6163 -24.6797 22.8766 -0.120853 -34.5095 
-0.280914 27.6405 -23.8463 2.61622 10.0111 -10.7343 12.5948 0.930346 -20.9633 
6.12298 -2.70442 -9.21948 2.08712 5.86642 -9.70737 -1.33273 7.64414 -21.3391 
-11.255 10.2644 -9.1496 -5.005 -4.49749 -5.83008 23.5466 -18.4566 -23.9957 
8.97896 2.3205 -31.7965 -5.72466 31.8503 -45.4564 24.7125 -10.7548 -36.3319 
19.5376 0.971528 -36.3436 -4.1611 21.6715 -33.654 -9.06618 19.5819 -21.2876 
-7.23308 11.8593 -3.17854 2.42419 5.33474 -9.71356 10.1713 0.62515 -15.2527 
8.4917 18.4074 -35.0698 7.76648 14.1777 -21.5317 20.7784 -3.67278 -23.1395 
26.8909 -9.54613 -25.402 10.1859 2.63723 -13.3717 12.2479 6.73411 -31.1956 
19.6253 10.5743 -45.1184 4.66201 20.009 -42.8679 
POLYGONS 505 1512
OFFSETS vtktypeint64
0 3 6 9 12 15 18 21 24 
27 30 33 36 39 42 45 48 51 
54 57 60 63 66 69 72 75 78 
81 84 87 90 93 96 99 102 105 
108 111 114 117 120 123 126 129 132 
135 138 141 144 147 150 153 156 159 
162 165 168 171 174 177 180 183 186 
189 192 195 198 201 204 207 210 213 
216 219 222 225 228 231 234 237 240 
243 246 249 252 255 258 261 264 267 
270 273 276 279 282 285 288 291 294 
297 300 303 306 309 312 315 318 321 
324 327 330 333 336 339 342 345 348 
351 354 357 360 363 366 369 372 375 
378 381 384 387 390 393 396 399 402 
405 408 411 414 417 420 423 426 429 
432 435 438 441 444 447 450 453 456 
459 462 465 468 471 474 477 480 483 
486 489 492 495 498 501 504 507 510 
513 516 519 522 525 528 531 534 537 
540 543 546 549 552 555 558 561 564 
567 570 573 576 579 582 585 588 591 
594 597 600 603 606 609 612 615 618 
621 624 627 630 633 636 639 642 645 
648 651 654 657 660 663 666 669 672 
675 678 681 684 687 690 693 696 699 
702 705 708 711 714 717 720 723 726 
729 732 735 738 741 744 747 750 753 
756 759 762 765 768 771 774 777 780 
783 786 789 792 795 798 801 804 807 
810 813 816 819 822 825 828 831 834 
837 840 843 846 849 852 855 858 861 
864 867 870 873 876 879 882 885 888 
891 894 897 900 903 906 909 912 915 
918 921 924 927 930 933 936 939 942 
945 948 951 954 957 960 963 966 969 
972 975 978 981 984 987 990 993 996 
999 1002 1005 1008 1011 1014 1017 1020 1023 
1026 1029 1032 1035 1038 1041 1044 1047 1050 
1053 1056 1059 1062 1065 1068 1071 1074 1077 
1080 1083 1086 1089 1092 1095 1098 1101 1104 
1107 1110 1113 1116 1119 1122 1125 1128 1131 
1134 1137 1140 1143 1146 1149 1152 1155 1158 
1161 1164 1167 1170 1173 1176 1179 1182 1185 
1188 1191 1194 1197 1200 1203 1206 1209 1212 
1215 1218 1221 1224 1227 1230 1233 1236 1239 
1242 1245 1248 1251 1254 1257 1260 1263 1266 
1269 1272 1275 1278 1281 1284 1287 1290 1293 
1296 1299 1302 1305 1308 1311 1314 1317 1320 
1323 1326 1329 1332 1335 1338 1341 1344 1347 
1350 1353 1356 1359 1362 1365 1368 1371 1374 
1377 1380 1383 1386 1389 1392 1395 1398 1401 
1404 1407 1410 1413 1416 1419 1422 1425 1428 
1431 1434 1437 1440 1443 1446 1449 1452 1455 
1458 1461 1464 1467 1470 1473 1476 1479 1482 
1485 1488 1491 1494 1497 1500 1503 1506 1509 
1512 
CONNECTIVITY vtktypeint64
20 21 82 22 63 21 65 57 64 
58 65 66 64 66 65 23 3 66 
19 18 58 3 19 66 66 19 58 
22 23 64 64 23 66 63 22 57 
57 22 64 67 13 77 14 13 67 
69 56 68 70 68 59 69 70 15 
68 70 69 16 2 70 70 59 16 
17 16 59 2 15 70 15 14 69 
56 14 67 69 14 56 71 17 59 
58 18 71 71 18 17 72 59 68 
73 68 56 60 72 73 68 73 72 
65 58 74 75 74 60 57 65 75 
74 75 65 72 60 74 71 74 58 
59 72 71 74 71 72 76 56 67 
61 76 77 67 77 76 13 12 77 
12 0 78 80 61 79 79 9 80 
8 78 0 9 79 8 78 8 79 
77 79 61 78 77 12 79 77 78 
63 57 81 82 81 62 63 82 21 
81 82 63 84 62 83 10 84 83 
80 10 83 84 10 11 1 20 85 
85 20 82 11 85 84 85 11 1 
62 84 82 85 82 84 10 80 9 
86 83 62 61 80 86 83 86 80 
87 62 81 75 81 57 60 87 75 
81 75 87 76 61 88 73 88 60 
56 76 73 88 73 76 87 60 88 
86 88 61 62 87 86 88 86 87 
36 115 37 38 37 96 98 97 90 
91 99 98 97 98 99 39 99 7 
35 91 34 7 99 35 99 91 35 
38 97 39 97 99 39 96 90 38 
90 97 38 100 110 29 30 100 29 
102 101 89 103 92 101 102 31 103 
101 102 103 32 103 6 103 32 92 
33 92 32 6 103 31 31 102 30 
89 100 30 102 89 30 104 92 33 
91 104 34 104 33 34 105 101 92 
106 89 101 93 106 105 101 105 106 
98 107 91 108 93 107 90 108 98 
107 98 108 105 107 93 104 91 107 
92 104 105 107 105 104 109 100 89 
94 110 109 100 109 110 29 110 28 
28 111 4 113 112 94 112 113 25 
24 4 111 25 24 112 111 112 24 
110 94 112 111 28 110 112 111 110 
96 114 90 115 95 114 96 37 115 
114 96 115 117 116 95 26 116 117 
113 116 26 117 27 26 5 118 36 
118 115 36 27 117 118 118 5 27 
95 115 117 118 117 115 26 25 113 
119 95 116 94 119 113 116 113 119 
120 114 95 108 90 114 93 108 120 
114 120 108 109 121 94 106 93 121 
89 106 109 121 109 106 120 121 93 
119 94 121 95 119 120 121 120 119 
47 46 148 45 129 46 131 123 130 
124 131 132 130 132 131 44 1 132 
11 10 124 1 11 132 132 11 124 
45 44 130 130 44 132 129 45 123 
123 45 130 133 42 143 41 42 133 
135 122 134 136 134 125 135 136 40 
134 136 135 8 0 136 136 125 8 
9 8 125 0 40 136 40 41 135 
122 41 133 135 41 122 137 9 125 
124 10 137 137 10 9 138 125 134 
139 134 122 126 138 139 134 139 138 
131 124 140 141 140 126 123 131 141 
140 141 131 138 126 140 137 140 124 
125 138 137 140 137 138 142 122 133 
127 142 143 133 143 142 42 43 143 
43 4 144 146 127 145 145 25 146 
24 144 4 25 145 24 144 24 145 
143 145 127 144 143 43 145 143 144 
129 123 147 148 147 128 129 148 46 
147 148 129 150 128 149 26 150 149 
146 26 149 150 26 27 5 47 151 
151 47 148 151 27 5 27 151 150 
128 150 148 151 148 150 26 146 25 
152 149 128 127 146 152 149 152 146 
153 128 147 141 147 123 126 153 141 
147 141 153 142 127 154 139 154 126 
122 142 139 154 139 142 153 126 154 
152 154 127 128 153 152 154 152 153 
55 181 54 53 54 162 164 163 156 
157 165 164 163 164 165 52 165 3 
19 157 18 3 165 19 165 157 19 
53 163 52 163 165 52 162 156 53 
156 163 53 166 176 50 49 166 50 
168 167 155 169 158 167 168 48 169 
167 168 169 16 169 2 169 16 158 
17 158 16 2 169 48 48 168 49 
155 166 49 168 155 49 170 158 17 
157 170 18 170 17 18 171 167 158 
172 155 167 159 172 171 167 171 172 
164 173 157 174 159 173 156 174 164 
173 164 174 171 173 159 170 157 173 
158 170 171 173 171 170 175 166 155 
160 176 175 166 175 176 50 176 51 
51 177 6 179 178 160 178 179 33 
32 6 177 33 32 178 177 178 32 
176 160 178 177 51 176 178 177 176 
162 180 156 181 161 180 162 54 181 
180 162 181 183 182 161 34 182 183 
179 182 34 183 35 34 7 184 55 
184 181 55 184 7 35 35 183 184 
161 181 183 184 183 181 34 33 179 
185 161 182 160 185 179 182 179 185 
186 180 161 174 156 180 159 174 186 
180 186 174 175 187 160 172 159 187 
155 172 175 187 175 172 186 187 159 
185 160 187 161 185 186 187 186 185 
31 30 214 29 195 30 197 189 196 
190 197 198 196 198 197 28 4 198 
43 42 190 4 43 198 198 43 190 
29 28 196 196 28 198 195 29 189 
189 29 196 199 14 209 13 14 199 
201 188 200 202 200 191 201 202 12 
200 202 201 40 0 202 202 191 40 
41 40 191 0 12 202 12 13 201 
188 13 199 201 13 188 203 41 191 
190 42 203 203 42 41 204 191 200 
205 200 188 192 204 205 200 205 204 
197 190 206 207 206 192 189 197 207 
206 207 197 204 192 206 203 206 190 
191 204 203 206 203 204 208 188 199 
193 208 209 199 209 208 14 15 209 
15 2 210 212 193 211 211 49 212 
48 210 2 49 211 48 210 48 211 
209 211 193 210 209 15 211 209 210 
195 189 213 214 213 194 195 214 30 
213 214 195 216 194 215 50 216 215 
212 50 215 216 50 51 6 31 217 
217 31 214 217 51 6 51 217 216 
194 216 214 217 214 216 50 212 49 
218 215 194 193 212 218 215 218 212 
219 194 213 207 213 189 192 219 207 
213 207 219 208 193 220 205 220 192 
188 208 205 220 205 208 219 192 220 
218 220 193 194 219 218 220 218 219 
39 247 38 37 38 228 230 229 222 
223 231 230 229 230 231 36 231 5 
47 223 46 5 231 47 231 223 47 
37 229 36 229 231 36 228 222 37 
222 229 37 232 242 22 21 232 22 
234 233 221 235 224 233 234 20 235 
233 234 235 44 235 1 235 44 224 
45 224 44 1 235 20 20 234 21 
221 232 21 234 221 21 236 224 45 
223 236 46 236 45 46 237 233 224 
238 221 233 225 238 237 233 237 238 
230 239 223 240 225 239 222 240 230 
239 230 240 237 239 225 236 223 239 
224 236 237 239 237 236 241 232 221 
226 242 241 232 241 242 22 242 23 
23 243 3 245 244 226 244 245 53 
52 3 243 53 52 244 243 244 52 
242 226 244 243 23 242 244 243 242 
228 246 222 247 227 246 228 38 247 
246 228 247 249 248 227 54 248 249 
245 248 54 249 55 54 7 250 39 
250 247 39 250 7 55 55 249 250 
227 247 249 250 249 247 54 53 245 
251 227 248 226 251 245 248 245 251 
252 246 227 240 222 246 225 240 252 
246 252 240 241 253 226 238 225 253 
221 238 241 253 241 238 252 253 225 
251 226 253 227 251 252 253 252 251 

CELL_DATA 504
SCALARS scalars double
LOOKUP_TABLE default
6.2487920485 5.7009744089 6.0370094949 -2.9593484983 -7.1717070541 -6.8319611506 -6.634527071 -6.1818686927 -5.4815579493 
-7.346490612 -7.5075085036 -6.949556649 6.4316880951 -1.480786952 -3.5164431711 9.0134431098 7.7735397308 6.7711554642 
6.8363249518 7.3671965576 7.045685056 6.1964250732 7.6313752362 8.1868561423 -4.4078323391 9.36623379 6.0189007249 
7.5000688474 6.5337022566 7.8521577983 8.3857795323 7.7835843145 8.0376253015 5.8571659634 8.1850405561 4.4865104505 
9.0742021533 7.9673596156 6.5778949476 7.8236280748 7.5750910118 -3.5613755675 -4.3755473302 -1.7985310946 -4.9681612221 
-7.1848511652 -6.1067081447 -6.9223596366 -7.2891220842 -5.8156902599 -5.8010963173 -6.7173018902 -4.9221492574 -6.0834933368 
-6.9266726823 -5.4442841198 6.2024617085 7.0874512636 -5.4590957177 -5.3464417888 -5.2872020112 -5.4638387489 5.2483481588 
5.5571599428 3.4526412141 3.6776066964 -4.6206508297 2.3428425028 -7.0731332513 -5.3262499235 -4.1401681003 -4.3393775242 
-5.6130887865 -8.2327454789 -5.3968977235 -7.0205158992 -3.962466631 -3.2467762877 -2.6085466658 -3.2538935759 -5.3369887906 
-4.7523183664 -5.3911029007 -4.8360673452 -4.3977177416 -4.4447971631 5.3143046446 5.8215365771 3.8179462795 6.031250174 
4.0561701154 6.2965985999 6.4206545443 5.6099457009 3.8285750365 -4.6380847027 6.4939669774 5.6500918771 3.6668404762 
-7.2749972881 -6.8831108221 -7.7739341936 -7.77849292 -5.2912394506 -5.2496640398 -7.3306512886 -6.7320556681 -7.2939104828 
3.2928133583 -7.1095078421 -7.2924116497 -6.056543129 -7.169774505 -7.1002874559 -7.2594580875 -7.4779449957 -8.0329472309 
-7.1642650488 -6.9467313151 -7.3281922246 -7.4750058289 -6.9856177208 -7.7973985047 -7.08195129 -7.0300147685 4.62924053 
6.1264922316 5.4275714669 5.0202252552 4.8959100685 5.5763955246 7.6156475037 6.5387972652 7.6713829843 6.5008149924 
5.3921066479 6.2324118981 6.1454415122 -4.4052555945 -2.0427027053 -4.2987780673 -4.2704671695 -4.1571604687 -3.2852584823 
6.1250675247 -3.2884080108 -4.8281405296 -4.9012587061 -5.223051541 -5.1015427665 -5.1409841755 -4.800484006 7.50942172 
7.1414648741 5.9233976226 6.8727661178 3.9079187994 5.0115785826 4.1896108608 5.3031160166 6.3770672164 3.8650346478 
4.8433653297 5.1004258787 3.6359185251 6.6874619601 5.3671580575 5.4052032781 -1.1264458991 -4.0317899389 3.1862139805 
4.5201978067 4.3504959832 3.3453678167 -5.1080463459 3.319179477 4.1654180082 5.170545161 5.2350539903 -2.5132789544 
4.6912725313 -7.5322045793 -8.0408204511 -4.8674351987 -7.017660736 -8.5880830446 -6.5837639656 -3.7818857165 -7.37516487 
-7.693845129 -3.5250417577 -8.0477610618 -7.6605364685 -5.3025573127 -7.3356928295 -5.8673632145 -5.8543787076 -6.3444985081 
-6.8798935615 -7.2031393611 -7.1634027116 4.968225943 -3.4769968912 4.1553942591 4.1901802939 -7.6530687451 -6.6996973356 
-6.3223312837 -7.447156238 -5.7664588518 -6.6103135091 -5.7852958739 -6.5505898829 7.13031212 6.6094957173 7.1659240872 
7.3101956634 5.8353586403 5.6956356984 5.7372833978 4.4136612718 4.7163069901 -1.9014411672 -3.7352917318 -5.5297819049 
-3.7349273491 2.8038142274 7.3206771518 5.1779079632 -5.3644116846 -4.2958208167 -3.2235371743 -3.4074016401 -4.2296634289 
-1.9424088681 -4.7105419902 7.0664384999 4.4280970165 4.6514908169 4.7159883155 -4.6038413871 -1.6002548851 -8.7731044761 
-1.0009403725 -5.0483597055 -6.7587828824 -6.8528567107 -6.6008896042 4.4384298466 2.5815699328 4.5092046367 3.3683791185 
4.7809098288 -4.6865025327 -6.8324901287 -4.7348852195 -4.8318250457 -6.8662392062 -6.0377238791 -6.8076765317 -5.9984851457 
-5.0532478873 -4.5670654218 -4.6753331579 -6.9236729317 -3.1875652535 -1.5152169195 4.6621157003 6.5551664818 5.707768131 
6.2258905172 5.1148132118 6.2049311962 6.3238094945 4.9921989839 5.9421406288 -2.4073441161 4.4904691122 6.1519354608 
-0.70529029843 4.2013140527 4.3837072385 4.1073331799 4.6063039423 4.1576758139 -3.1715769184 -2.1721759035 -3.8319573697 
-3.8387076327 4.2007875766 -2.918270494 4.4525179319 6.0762137026 -1.9027325191 -3.3454679138 -3.3319718839 -4.194255624 
-6.551364376 -6.0274049631 -6.9963773645 -6.7227495208 -6.8131970365 -5.019571997 -5.4281050587 -3.8064668981 -3.1811095795 
-1.8290740363 -1.1877363674 -5.5920712718 -4.8400127259 -6.400758415 -7.2265065639 -3.3034277559 4.919149761 3.3870719651 
4.8272801689 3.3419058471 4.6984357279 -0.59531973489 5.8971393883 -6.8873314671 -3.9934427959 -6.7503768907 -3.1673919 
-3.2601561068 -1.702236484 -2.1995893434 -3.6743280049 -2.673004613 -2.5637317278 -3.198773442 -2.9998816884 3.9229525281 
2.3439488171 -4.8958244744 3.9580358887 -7.3044608623 3.9005231864 3.7934061781 3.4635765718 6.0988428499 4.5080240266 
-8.415885364 4.8493937815 5.5010137918 4.9511410682 6.3233436216 5.5936483166 3.5006426239 7.0209355373 -1.7283602354 
-5.3740251542 -6.7813662746 -4.1086862961 -4.1477598157 -6.0678260477 -6.3976810089 -5.1188698663 -7.3989942141 -5.2195430813 
0.19426274389 -5.733783542 -5.0526215895 -7.035086593 -7.0472085832 -7.0844363617 -3.4296832316 -2.0477993143 -1.9516530594 
-6.0334802933 -5.8033868589 5.0699135988 -6.801401241 -5.3690660348 -6.2134453807 -7.0356947669 -6.4083916291 0.69281174423 
6.8333521232 7.3237232682 8.5668599138 7.3697610938 7.8826418883 5.3091248906 7.9293347622 5.6522710758 7.6359007267 
8.0915336753 6.4778423083 7.0298539198 5.585975546 -5.5630403604 1.539309623 1.9986978294 -1.5931950865 -3.2952673748 
-4.4008816497 -4.7884114199 -6.7510250578 -7.9921186439 -4.8694097407 -4.2828695338 -5.8043027224 -5.257887829 0.36686788029 
-1.9233026695 6.9918254818 -4.1637101169 -4.9399553654 4.8641387584 -0.17018912655 -4.6240243552 6.5342092241 -3.1575179795 
-2.443179319 -3.6240516082 -1.8210337754 6.9919731736 -1.9721051204 6.7141076491 5.6983808046 -4.5927721758 -5.1845987623 
-3.8965717515 -2.8362136007 -4.7308001984 -2.1847088877 -6.9073330593 -6.1817913878 -4.4185175082 -2.7548230038 -3.1127705432 
-6.0242088892 7.4418588512 6.0117965631 5.9052742364 5.4707111696 4.2937255508 4.2994534767 6.1609387927 6.1416578915 
4.644419721 5.2806730471 6.2365746904 -7.657434301 6.6436457973 4.1579120726 -3.5205830057 -2.0285701327 5.5726496035 
5.8215803557 5.6064846778 5.532899615 -3.5216620135 -3.7413411207 -5.1917903313 -3.7335496919 5.8821191056 -4.763024126 
6.186645048 6.1989997128 -7.6993095255 -8.5968238229 7.5079468797 -6.5734779718 -6.8323988816 -5.9484753712 -6.5685157125 
-5.513739525 -6.6349924728 -5.6784525241 -7.5171889171 -8.5812162219 -7.2045441321 -3.4070277678 6.012819625 5.060562727 
5.2796885755 -6.1883421409 -5.290325172 -5.5240566988 4.2842834376 5.3630176115 4.7521753909 5.5405876285 5.6906290691 
5.7997567594 4.9696080672 -6.0153599513 -7.3923045489 -5.5406254235 -7.4189063219 5.790212742 -4.6465575765 -3.3209939911 
-4.4074152928 -8.5427125848 -6.5469331191 -6.3547211693 -6.3802933808 -8.2046728914 -6.1939140997 -6.5739085276 -7.1203235148 

