# vtk DataFile Version 5.1
vtk output
ASCII
DATASET POLYDATA
POINTS 254 float
-5.36558 -6.09821 -4.09128 -5.11532 -4.69797 10.7125 -4.92733 9.20074 -4.71974 
-5.47111 15.3251 16.0703 10.2487 -5.05939 -4.47828 13.7051 -6.64524 13.8974 
11.4913 10.5502 -3.81596 13.0829 11.6352 13.753 -7.15441 -7.57183 -0.411194 
-8.13274 -7.55332 2.66298 -8.16428 -7.3715 5.00633 -6.91694 -6.21616 7.6695 
-6.99554 -2.61331 -6.13534 -7.89293 1.34124 -7.73972 -8.03086 4.66702 -7.26745 
-6.2005 7.22829 -6.67818 -6.70708 10.0603 -1.82963 -7.44141 10.3997 1.3844 
-7.68068 11.1337 4.65507 -8.23925 12.6359 8.03578 -6.51213 -1.14343 11.0536 
-6.77714 3.67044 11.312 -7.8224 8.56107 11.8424 -7.50635 12.2703 13.1021 
12.6414 -6.54018 -0.734297 14.3694 -7.39661 2.46375 15.5968 -8.75267 7.42627 
14.9986 -8.01661 10.7895 12.3287 -1.32586 -6.18139 12.4682 2.27119 -7.49986 
12.2717 6.12484 -7.03577 12.1247 8.50372 -6.48807 12.6636 11.9077 -0.342582 
13.4025 12.4682 2.92337 13.619 12.6739 6.79243 13.9251 12.1527 10.7224 
14.556 -3.34525 14.8781 14.9647 0.357364 15.1147 14.9345 4.30664 14.7262 
13.8573 8.03055 14.7552 -1.68788 -6.78538 -5.36752 1.57656 -7.77094 -5.68321 
4.4267 -7.23143 -6.0621 7.15057 -6.82204 -5.61761 -1.51929 -6.26222 11.4812 
2.37653 -7.67459 11.7953 6.45072 -7.73568 12.7727 10.2425 -7.89287 13.4978 
-1.37253 9.73184 -5.33935 2.08557 10.266 -5.2653 5.40428 10.1626 -5.4483 
8.72566 10.4672 -4.86755 -2.22258 15.1015 18.7063 10.3648 14.7475 25.0807 
7.04645 15.1351 15.6485 10.5142 13.6042 15.4227 -11.2674 4.10029 -3.00428 
-10.7895 7.49666 9.92307 -10.0582 11.4978 6.25714 -9.71661 9.01472 0.549677 
-13.1955 5.60368 3.56795 -12.5393 -1.3356 0.330812 -11.3066 0.58733 6.82986 
-9.34605 4.70482 10.2013 -9.51627 10.4291 11.1372 -11.7263 10.1517 8.38149 
-9.4988 13.2484 10.0929 -10.6902 1.82649 -4.49002 -11.4184 6.62758 -1.01313 
-9.44536 6.18804 -4.53751 -8.31418 8.38521 -3.26328 -10.2422 10.1591 3.6467 
-11.7481 7.18672 2.31584 -13.0585 4.78183 0.467319 -12.1895 8.67296 5.02751 
-13.1643 7.54183 6.56504 -12.8117 1.81323 -1.58683 -11.505 -1.01034 -3.61688 
-8.52269 -4.40361 -2.73393 -10.6872 -4.92217 -0.100951 -10.9159 -4.43181 2.62945 
-11.8148 4.05764 8.41469 -9.15343 0.754595 9.56752 -10.5727 -3.02072 4.92321 
-9.06539 -3.1324 7.42525 -7.75893 -3.02145 9.37935 -12.4607 -0.494776 3.20627 
-13.4433 3.74974 5.0848 -13.4816 2.30456 1.53602 13.4298 4.86226 -3.74951 
15.7189 3.91226 11.1089 14.8972 9.98743 7.96811 14.4889 9.90718 0.928831 
15.4298 3.91626 3.19825 15.3163 -1.54222 -0.139188 16.5267 -2.26715 7.95218 
15.8601 1.21034 12.8109 15.0277 6.8142 12.4976 14.8512 6.91125 9.11598 
14.1698 9.68663 11.2567 13.2461 3.19571 -5.6859 14.3994 7.13612 -1.14298 
13.1557 7.15942 -4.39462 13.453 9.45542 -2.48954 14.7412 10.0143 4.49616 
14.9839 6.86167 2.14052 15.0174 4.24604 -0.253898 15.2702 7.22526 5.54697 
15.1092 4.1363 6.79829 14.865 1.7541 -2.35884 14.6852 -0.385628 -3.86398 
13.2438 -3.75678 -3.24262 14.9791 -4.07401 -0.449482 15.8554 -4.79905 2.68966 
16.3929 0.903483 9.43428 16.4884 -2.56225 12.1278 16.3003 -4.80709 6.22662 
16.4054 -5.49838 9.97929 15.4911 -5.13873 12.6434 16.4483 -1.66686 3.26955 
16.0341 1.2337 5.23725 15.6477 1.22076 1.0406 1.86759 -10.2891 -1.10939 
2.26522 -10.5425 9.1808 -4.70608 -9.29409 6.65387 -4.93904 -9.66882 1.35941 
2.31527 -11.748 4.2363 8.37735 -11.5033 1.77092 8.58961 -11.7652 7.86929 
5.29645 -9.79626 10.7838 -0.385969 -8.68543 9.64571 -0.861179 -9.97707 7.62591 
-3.77502 -7.84361 8.72631 3.93039 -9.94328 -3.21202 -1.28353 -10.2284 0.41458 
-0.607459 -8.90124 -2.44309 -3.99087 -8.49595 -1.1169 -5.23437 -9.58255 4.33575 
-1.39788 -10.6618 3.0554 1.96021 -11.6248 1.66828 -1.09861 -10.7095 5.40573 
2.6108 -11.5124 6.70063 4.72418 -11.6443 0.0228878 7.06093 -10.1946 -2.49095 
9.54051 -8.11468 -2.37231 10.7582 -9.41236 0.613367 11.6668 -10.5464 3.90615 
5.53276 -11.5292 9.21029 9.36576 -10.4304 11.3974 11.6201 -10.9071 6.66108 
12.4799 -10.2981 9.82131 12.2151 -8.97101 12.3972 8.27991 -12.0857 4.6185 
5.32638 -12.1213 6.0132 5.14522 -12.3929 2.84294 2.51211 12.3137 -1.01099 
0.704601 13.8352 14.1062 -5.0427 12.4211 6.85938 -4.26993 11.593 0.458735 
1.73838 13.6037 5.879 7.84676 13.7819 2.56191 8.6947 14.7872 9.8158 
4.50084 15.137 14.1328 -0.753673 13.8386 16.0407 -2.03422 12.7325 11.1919 
-4.02354 13.2821 12.6437 4.61878 11.6977 -2.92179 -0.443005 11.7467 0.438328 
-0.176777 11.3626 -3.01006 -3.35929 10.7306 -2.58066 -4.78166 11.5325 3.59692 
-1.01 12.4369 3.53224 2.46258 12.4185 2.39066 -1.69532 12.8431 6.89259 
1.1773 13.9917 9.48122 5.07339 13.4865 0.625769 7.56314 12.4626 -1.32318 
10.3462 12.1206 -1.76783 10.2797 13.3737 1.13503 10.5877 13.1998 3.90555 
4.73462 15.2973 10.8835 9.2359 15.6698 13.3849 10.8282 13.5854 7.02788 
11.778 14.0169 9.97484 11.9987 13.7065 12.6374 7.84963 14.3035 6.14434 
4.83937 14.5604 7.75224 5.28101 13.8049 4.49848 -3.24552 1.88683 -10.3463 
9.23742 2.50271 -9.50422 5.13753 -3.74936 -7.944 0.498501 -4.2038 -8.37177 
2.88495 2.4221 -11.3023 0.1786 6.82719 -10.037 7.04253 7.29819 -9.65216 
10.734 5.03994 -8.86715 10.2414 0.1258 -8.53046 7.29781 -0.418139 -9.20168 
8.31625 -3.41637 -7.36122 -4.60938 4.06836 -9.88847 -0.845086 -1.06406 -9.98002 
-4.33054 -0.908883 -8.51344 -3.01307 -3.84011 -7.59773 2.75489 -4.38229 -8.48229 
1.7796 -1.18797 -10.3719 -0.0523645 2.09211 -11.4732 4.52159 -0.843765 -9.76078 
5.99973 2.71595 -10.763 -1.86436 5.24851 -11.2357 -3.3531 6.52637 -9.68573 
-2.90716 7.98555 -7.059 0.174264 8.55684 -7.90815 2.66744 8.25269 -7.54347 
7.8114 5.92459 -10.606 10.0642 7.68886 -8.69644 5.44275 8.50808 -7.78237 
8.22453 8.86523 -6.9924 10.4416 8.72173 -6.33134 3.618 6.89298 -9.99005 
4.58116 5.37224 -11.3771 1.80821 5.12894 -11.9968 -2.65633 4.13123 13.2173 
11.1184 1.32976 15.1898 7.95714 -5.12288 14.0538 0.713564 -4.08262 12.9075 
4.08596 2.88572 14.1164 0.943507 13.3558 15.2212 7.8627 7.75698 15.454 
12.4811 3.76532 15.3413 12.4455 -1.88484 14.941 9.40445 -1.49601 14.1621 
11.1416 -4.80999 14.3106 -4.13761 7.5571 13.3294 -0.904669 0.273468 13.1813 
-4.3824 0.528942 12.4193 -3.17953 -3.2898 12.4832 4.35605 -5.01364 12.9665 
2.54181 -0.616482 13.7434 0.406232 3.99131 13.0673 5.81353 -1.51839 14.3161 
7.70174 1.74987 14.8466 -1.16894 8.05757 14.0405 -1.96241 14.5089 14.9142 
-1.63073 17.9466 16.0376 4.85009 21.9615 16.1234 6.54699 18.4295 15.764 
9.36226 4.84429 15.5501 12.0669 7.30562 15.4993 6.10571 11.4875 15.462 
9.59119 11.0899 15.2625 12.2204 10.4493 15.115 3.40744 10.4146 15.5968 
5.70491 5.46081 14.8479 1.66222 7.12778 14.4664 
POLYGONS 505 1512
OFFSETS vtktypeint64
0 3 6 9 12 15 18 21 24 
27 30 33 36 39 42 45 48 51 
54 57 60 63 66 69 72 75 78 
81 84 87 90 93 96 99 102 105 
108 111 114 117 120 123 126 129 132 
135 138 141 144 147 150 153 156 159 
162 165 168 171 174 177 180 183 186 
189 192 195 198 201 204 207 210 213 
216 219 222 225 228 231 234 237 240 
243 246 249 252 255 258 261 264 267 
270 273 276 279 282 285 288 291 294 
297 300 303 306 309 312 315 318 321 
324 327 330 333 336 339 342 345 348 
351 354 357 360 363 366 369 372 375 
378 381 384 387 390 393 396 399 402 
405 408 411 414 417 420 423 426 429 
432 435 438 441 444 447 450 453 456 
459 462 465 468 471 474 477 480 483 
486 489 492 495 498 501 504 507 510 
513 516 519 522 525 528 531 534 537 
540 543 546 549 552 555 558 561 564 
567 570 573 576 579 582 585 588 591 
594 597 600 603 606 609 612 615 618 
621 624 627 630 633 636 639 642 645 
648 651 654 657 660 663 666 669 672 
675 678 681 684 687 690 693 696 699 
702 705 708 711 714 717 720 723 726 
729 732 735 738 741 744 747 750 753 
756 759 762 765 768 771 774 777 780 
783 786 789 792 795 798 801 804 807 
810 813 816 819 822 825 828 831 834 
837 840 843 846 849 852 855 858 861 
864 867 870 873 876 879 882 885 888 
891 894 897 900 903 906 909 912 915 
918 921 924 927 930 933 936 939 942 
945 948 951 954 957 960 963 966 969 
972 975 978 981 984 987 990 993 996 
999 1002 1005 1008 1011 1014 1017 1020 1023 
1026 1029 1032 1035 1038 1041 1044 1047 1050 
1053 1056 1059 1062 1065 1068 1071 1074 1077 
1080 1083 1086 1089 1092 1095 1098 1101 1104 
1107 1110 1113 1116 1119 1122 1125 1128 1131 
1134 1137 1140 1143 1146 1149 1152 1155 1158 
1161 1164 1167 1170 1173 1176 1179 1182 1185 
1188 1191 1194 1197 1200 1203 1206 1209 1212 
1215 1218 1221 1224 1227 1230 1233 1236 1239 
1242 1245 1248 1251 1254 1257 1260 1263 1266 
1269 1272 1275 1278 1281 1284 1287 1290 1293 
1296 1299 1302 1305 1308 1311 1314 1317 1320 
1323 1326 1329 1332 1335 1338 1341 1344 1347 
1350 1353 1356 1359 1362 1365 1368 1371 1374 
1377 1380 1383 1386 1389 1392 1395 1398 1401 
1404 1407 1410 1413 1416 1419 1422 1425 1428 
1431 1434 1437 1440 1443 1446 1449 1452 1455 
1458 1461 1464 1467 1470 1473 1476 1479 1482 
1485 1488 1491 1494 1497 1500 1503 1506 1509 
1512 
CONNECTIVITY vtktypeint64
20 21 82 22 63 21 65 57 64 
58 65 66 64 66 65 23 3 66 
19 18 58 3 19 66 66 19 58 
22 23 64 64 23 66 63 22 57 
57 22 64 67 13 77 14 13 67 
69 56 68 70 68 59 69 70 15 
68 70 69 16 2 70 70 59 16 
17 16 59 2 15 70 15 14 69 
56 14 67 69 14 56 71 17 59 
58 18 71 71 18 17 72 59 68 
73 68 56 60 72 73 68 73 72 
65 58 74 75 74 60 57 65 75 
74 75 65 72 60 74 71 74 58 
59 72 71 74 71 72 76 56 67 
61 76 77 67 77 76 13 12 77 
12 0 78 80 61 79 79 9 80 
8 78 0 9 79 8 78 8 79 
77 79 61 78 77 12 79 77 78 
63 57 81 82 81 62 63 82 21 
81 82 63 84 62 83 10 84 83 
80 10 83 84 10 11 1 20 85 
85 20 82 11 85 84 85 11 1 
62 84 82 85 82 84 10 80 9 
86 83 62 61 80 86 83 86 80 
87 62 81 75 81 57 60 87 75 
81 75 87 76 61 88 73 88 60 
56 76 73 88 73 76 87 60 88 
86 88 61 62 87 86 88 86 87 
36 115 37 38 37 96 98 97 90 
91 99 98 97 98 99 39 99 7 
35 91 34 7 99 35 99 91 35 
38 97 39 97 99 39 96 90 38 
90 97 38 100 110 29 30 100 29 
102 101 89 103 92 101 102 31 103 
101 102 103 32 103 6 103 32 92 
33 92 32 6 103 31 31 102 30 
89 100 30 102 89 30 104 92 33 
91 104 34 104 33 34 105 101 92 
106 89 101 93 106 105 101 105 106 
98 107 91 108 93 107 90 108 98 
107 98 108 105 107 93 104 91 107 
92 104 105 107 105 104 109 100 89 
94 110 109 100 109 110 29 110 28 
28 111 4 113 112 94 112 113 25 
24 4 111 25 24 112 111 112 24 
110 94 112 111 28 110 112 111 110 
96 114 90 115 95 114 96 37 115 
114 96 115 117 116 95 26 116 117 
113 116 26 117 27 26 5 118 36 
118 115 36 27 117 118 118 5 27 
95 115 117 118 117 115 26 25 113 
119 95 116 94 119 113 116 113 119 
120 114 95 108 90 114 93 108 120 
114 120 108 109 121 94 106 93 121 
89 106 109 121 109 106 120 121 93 
119 94 121 95 119 120 121 120 119 
47 46 148 45 129 46 131 123 130 
124 131 132 130 132 131 44 1 132 
11 10 124 1 11 132 132 11 124 
45 44 130 130 44 132 129 45 123 
123 45 130 133 42 143 41 42 133 
135 122 134 136 134 125 135 136 40 
134 136 135 8 0 136 136 125 8 
9 8 125 0 40 136 40 41 135 
122 41 133 135 41 122 137 9 125 
124 10 137 137 10 9 138 125 134 
139 134 122 126 138 139 134 139 138 
131 124 140 141 140 126 123 131 141 
140 141 131 138 126 140 137 140 124 
125 138 137 140 137 138 142 122 133 
127 142 143 133 143 142 42 43 143 
43 4 144 146 127 145 145 25 146 
24 144 4 25 145 24 144 24 145 
143 145 127 144 143 43 145 143 144 
129 123 147 148 147 128 129 148 46 
147 148 129 150 128 149 26 150 149 
146 26 149 150 26 27 5 47 151 
151 47 148 151 27 5 27 151 150 
128 150 148 151 148 150 26 146 25 
152 149 128 127 146 152 149 152 146 
153 128 147 141 147 123 126 153 141 
147 141 153 142 127 154 139 154 126 
122 142 139 154 139 142 153 126 154 
152 154 127 128 153 152 154 152 153 
55 181 54 53 54 162 164 163 156 
157 165 164 163 164 165 52 165 3 
19 157 18 3 165 19 165 157 19 
53 163 52 163 165 52 162 156 53 
156 163 53 166 176 50 49 166 50 
168 167 155 169 158 167 168 48 169 
167 168 169 16 169 2 169 16 158 
17 158 16 2 169 48 48 168 49 
155 166 49 168 155 49 170 158 17 
157 170 18 170 17 18 171 167 158 
172 155 167 159 172 171 167 171 172 
164 173 157 174 159 173 156 174 164 
173 164 174 171 173 159 170 157 173 
158 170 171 173 171 170 175 166 155 
160 176 175 166 175 176 50 176 51 
51 177 6 179 178 160 178 179 33 
32 6 177 33 32 178 177 178 32 
176 160 178 177 51 176 178 177 176 
162 180 156 181 161 180 162 54 181 
180 162 181 183 182 161 34 182 183 
179 182 34 183 35 34 7 184 55 
184 181 55 184 7 35 35 183 184 
161 181 183 184 183 181 34 33 179 
185 161 182 160 185 179 182 179 185 
186 180 161 174 156 180 159 174 186 
180 186 174 175 187 160 172 159 187 
155 172 175 187 175 172 186 187 159 
185 160 187 161 185 186 187 186 185 
31 30 214 29 195 30 197 189 196 
190 197 198 196 198 197 28 4 198 
43 42 190 4 43 198 198 43 190 
29 28 196 196 28 198 195 29 189 
189 29 196 199 14 209 13 14 199 
201 188 200 202 200 191 201 202 12 
200 202 201 40 0 202 202 191 40 
41 40 191 0 12 202 12 13 201 
188 13 199 201 13 188 203 41 191 
190 42 203 203 42 41 204 191 200 
205 200 188 192 204 205 200 205 204 
197 190 206 207 206 192 189 197 207 
206 207 197 204 192 206 203 206 190 
191 204 203 206 203 204 208 188 199 
193 208 209 199 209 208 14 15 209 
15 2 210 212 193 211 211 49 212 
48 210 2 49 211 48 210 48 211 
209 211 193 210 209 15 211 209 210 
195 189 213 214 213 194 195 214 30 
213 214 195 216 194 215 50 216 215 
212 50 215 216 50 51 6 31 217 
217 31 214 217 51 6 51 217 216 
194 216 214 217 214 216 50 212 49 
218 215 194 193 212 218 215 218 212 
219 194 213 207 213 189 192 219 207 
213 207 219 208 193 220 205 220 192 
188 208 205 220 205 208 219 192 220 
218 220 193 194 219 218 220 218 219 
39 247 38 37 38 228 230 229 222 
223 231 230 229 230 231 36 231 5 
47 223 46 5 231 47 231 223 47 
37 229 36 229 231 36 228 222 37 
222 229 37 232 242 22 21 232 22 
234 233 221 235 224 233 234 20 235 
233 234 235 44 235 1 235 44 224 
45 224 44 1 235 20 20 234 21 
221 232 21 234 221 21 236 224 45 
223 236 46 236 45 46 237 233 224 
238 221 233 225 238 237 233 237 238 
230 239 223 240 225 239 222 240 230 
239 230 240 237 239 225 236 223 239 
224 236 237 239 237 236 241 232 221 
226 242 241 232 241 242 22 242 23 
23 243 3 245 244 226 244 245 53 
52 3 243 53 52 244 243 244 52 
242 226 244 243 23 242 244 243 242 
228 246 222 247 227 246 228 38 247 
246 228 247 249 248 227 54 248 249 
245 248 54 249 55 54 7 250 39 
250 247 39 250 7 55 55 249 250 
227 247 249 250 249 247 54 53 245 
251 227 248 226 251 245 248 245 251 
252 246 227 240 222 246 225 240 252 
246 252 240 241 253 226 238 225 253 
221 238 241 253 241 238 252 253 225 
251 226 253 227 251 252 253 252 251 

CELL_DATA 504
SCALARS scalars double
LOOKUP_TABLE default
-0.74503791419 -1.9132272636 0.83279682164 6.385765534 2.25406521 0.14475730965 8.9461959536 9.5139499081 9.0344691682 
-2.1979437932 2.2243378726 -1.6914759646 -1.3461080063 0.16110176315 0.62034324281 3.3920652732 6.845840709 6.1198621255 
6.0044826437 7.8590377929 7.8453105042 8.6790580152 7.6264909772 5.5042061337 1.7720294738 2.7358302647 8.4620065321 
8.826319354 9.362799335 6.4701888925 3.3224304757 5.774976034 5.7157127323 6.4111652799 4.0855752449 0.47474299725 
5.4432374153 4.4526390113 6.5331722547 5.4018110761 5.5273591108 1.7726785348 -2.4185526763 0.50316890033 -4.1800780156 
-5.9779775168 -4.5959177755 -6.6408159297 -6.3217798744 -7.7807432857 -6.3851403181 -4.1764671582 -6.2144409679 -6.2220719923 
-1.9773567432 -3.7341373737 -1.6295553796 -1.5831634167 -4.0350752338 -4.2510336841 -4.3989964399 -4.5529662337 -2.9869127165 
-2.623523111 -4.6399419079 -4.9096237798 -3.4356046696 -3.1516778329 -6.6467376087 -3.733503559 -3.7906255009 -3.8593233808 
-3.234818004 -0.097813345388 0.92456874206 -1.0822325178 -1.9132535738 1.3451147058 2.6458833398 0.71314724649 1.0620642788 
-2.827134131 -3.6485074309 -2.7487634165 -1.2631814348 0.44073953706 2.510341224 0.68077076443 2.6900607492 2.6024732003 
4.2451401451 1.5636531419 1.4461532619 2.5990967121 3.7710098756 1.7080554486 1.3771252924 1.2921111405 0.97917159666 
0.11141934316 2.0046560929 1.6804195701 1.7190749018 6.0875794138 5.2601283151 5.4799591485 6.8072232578 1.40564483 
1.9569694678 0.21579609743 4.3929757534 4.158634257 4.4091037729 0.93107299894 0.71535946365 1.1101316322 1.5906721895 
0.29608952363 -0.1556981285 1.9668845507 -0.046825029622 1.1543294517 1.7052783975 1.3127753685 1.4942286917 2.7431018581 
0.28457061208 1.8067615626 -2.6072887952 -5.7608884889 -0.9177443049 -4.4581577077 -6.3293864258 -5.6256484116 -5.7456023281 
-1.055444106 -4.1046566019 -4.1560678693 1.4054989083 0.36669689866 0.82767515878 1.3752479255 -0.62139878757 -1.9374357468 
-2.1018964847 -4.1114834831 -3.6162808242 -2.1610682936 -3.7033395935 -4.5136131623 -0.33255438338 -2.77940224 -4.4741978974 
-0.71319057179 -1.1947171885 -1.6245966481 0.78746961358 2.8021447762 2.6893191822 3.2969490396 -0.19737685283 1.6092242429 
2.5180769782 1.14412189 1.5245398498 0.20425237506 1.4042081282 2.0065080031 -5.9118196776 -6.2417234104 -7.2246918909 
-7.1912823273 -7.5402199929 -6.0540918784 -6.0168693855 -6.0356330933 -5.7787011402 -6.6078263718 -6.639087532 -6.5205706766 
-6.318132996 -7.2942712048 -7.2771915984 -8.586692025 -8.3263109909 -8.230514106 -8.4344974485 -8.0239524913 -7.9082372045 
-7.8310225409 -8.0414297391 -8.2254109616 -8.408526643 -8.5779936926 -8.2726959382 -8.0174678041 -8.029759569 -9.6722835353 
-8.8223783734 -9.603970694 -9.2742086383 -9.1265377415 -9.6043560979 -8.9792266625 -8.9329998766 -9.5817587065 -9.3489624732 
-9.6272491691 -9.637726935 -8.796015081 -9.1766052078 -8.8057247061 -6.6682219487 -5.5737413224 -7.7605523975 -6.9519033692 
-5.4619462768 -6.2685836595 -6.2594061317 -7.7743914243 -5.8724089566 -6.460059737 -6.7280722564 -9.3802150725 -6.1534168651 
-6.7265174755 -9.4645284332 -8.8185165299 -8.657864277 -7.6293272188 -5.9172406405 -6.4986097003 -6.7263211622 -7.4411196674 
-9.3066804811 -8.4434330637 -6.9717306191 -9.5291558669 -9.098510521 -9.1330233438 -9.8331751855 -9.0737107434 -9.7505537289 
-9.6716977822 -9.4612425989 -9.7326883314 -8.7543610838 -9.6138129676 -9.7971625063 -9.6094169237 -9.9413135659 -9.9530100127 
7.5838126684 9.9822026648 9.6308215959 9.7464960101 9.6574999302 8.6137698696 9.041279007 8.701478991 9.8873698238 
9.2358769174 9.236216495 9.2564377053 9.9799416297 8.6052390254 8.5433887456 9.6098285322 9.5803681246 8.4878767056 
9.6991391484 8.6574277362 9.0691154719 9.0080155478 8.6147321504 8.4099148112 8.9927323771 9.0088898606 9.3113251105 
9.3462421516 9.4963411744 9.7362106781 9.7841691269 9.344805331 9.7078027443 9.9200340701 9.5663706774 9.2986770847 
9.3007353573 9.5082492284 9.5570521615 9.7217809227 9.5873458064 8.9180019334 9.3610112121 8.9212714954 8.7216782903 
8.2647168979 9.8123879731 9.6463026882 8.2785408238 8.8623165828 8.7583305858 9.4713523571 8.7523453447 9.1738465858 
9.4561554806 9.6705940434 9.8509608719 9.9358158605 9.4416914703 9.3104051892 9.4470352116 7.6285569042 5.8453344712 
7.1710210476 5.6637548199 7.6064679138 9.3142382802 8.084265345 9.7107020905 9.4038797149 9.5267040326 9.5263762814 
9.7188033231 9.3918565497 9.668386007 9.3947578608 9.9557041705 9.1721356852 9.1674138075 9.1118838974 9.5855835604 
9.846853049 9.909482696 9.7205974591 2.0462611296 1.1868868878 -2.6943187195 -4.5996412554 -4.3311329679 -5.7296708242 
-4.9779575108 -5.2260775163 -5.0098471354 -2.9146112622 -4.9716156003 -0.93562766959 -1.2890009956 3.3716126427 0.88624690353 
-4.0469822359 -5.2087641973 -4.3859635664 -4.2373191149 -6.6057295877 -6.5078682114 -6.3009268883 -5.9803108751 -4.2153312225 
-1.1439300529 -3.7873960892 -6.1625491451 -5.0021893463 -6.4070044571 -5.0106144677 -3.481054944 -2.7337887886 -3.9070598087 
-4.7665723234 -3.3884331027 -3.0950454393 -3.5303847607 -3.1136065662 -4.5605281177 -5.260417154 -4.3618081774 -0.69338071706 
7.0047115228 3.3384872845 5.3790981583 7.5806937301 7.6309368927 7.5938132122 7.7554556083 8.7181110151 7.8935854813 
7.6963262292 8.6392929997 8.5901867767 -0.73430686053 6.2234793863 2.1716607172 1.9020428709 8.5348049478 8.1485411803 
8.085694465 7.9426557242 7.9842116103 9.0879509664 7.43953033 7.4920778427 8.4905704214 8.9009101996 7.4756815395 
8.2235474278 8.7237942319 8.4652745182 6.0061327248 -1.520604736 -1.287730682 -0.91695530473 6.9669539059 -2.1735533262 
-1.153402445 -0.43576766382 -1.5571587345 7.53485294 6.716605103 7.0321109802 0.9382948429 0.97154096464 -1.8300647568 
0.02405878547 -0.92204746611 -2.7469643226 -3.4165301448 -2.4884910776 -2.3963609395 -0.62305333353 -1.7155375429 -0.63909722001 
-0.77198438613 -0.85793330782 -1.8461159625 -1.0911019608 -1.1017750827 -1.3039682538 -0.52174688184 -4.7816195946 -4.0295834992 
-3.7631926823 -2.8379927691 -0.73765266767 -1.9924094817 0.00014539552162 -3.3672286545 -2.8449155727 -2.4382768403 -1.3274761083 
0.13179288288 0.16334099724 0.79763554263 -0.46986910478 -0.37760799099 -2.6892901538 -1.8438002081 -0.25714704036 -2.3838113498 
-2.0036533527 -2.6274541189 -1.2318416365 -1.5209847322 -1.5607984366 -3.0201769669 -7.4875348816 -1.0279957342 -4.4081121599 
-6.6006445266 -6.1831900717 -6.6569422894 -0.47783445705 -2.8829123434 -3.2137823146 -0.83133702766 0.29034839363 -0.1445033567 
-0.38264220175 0.26176743292 -0.63808412697 -0.40937750443 -0.75159270745 3.3033537729 0.96959538128 2.9562806055 -0.77113393375 
0.59617136719 1.1685444796 -1.5292768445 0.18012024684 0.26288736975 -0.47721824262 -0.70485804575 -1.5946278672 -1.2645903234 
-1.1085287369 -1.3987774893 -2.6737810457 -2.1874390722 -3.1322963774 -1.7334483678 -1.5043817525 -1.8461433383 -2.3028345283 

