# vtk DataFile Version 5.1
vtk output
ASCII
DATASET POLYDATA
POINTS 1244 float
0.160831 0.17233 0.177665 0.148101 0.164792 9.70053 0.155673 9.76161 0.182497 
0.156975 9.72082 9.71094 9.73886 0.170585 0.171155 9.70483 0.123128 9.71404 
9.69301 9.72429 0.153789 9.78724 9.83594 9.74301 -0.0128359 3.77843e-05 1.05562 
-0.0310434 -0.0213582 2.02519 -0.0148769 0.0188338 2.97896 -0.00380626 -0.0185137 4.01455 
0.0419928 0.0123989 5.00928 0.0144685 -0.00400149 5.98767 0.0440345 0.0373151 6.98843 
0.00536893 -0.0239148 7.97349 0.0103015 -0.0181817 8.94918 -0.0165038 0.999595 -0.0152324 
-0.0111566 2.07119 -0.0413197 -0.0388424 2.99145 -0.00418025 -0.0170454 3.93674 -0.0105935 
-0.0287206 4.99533 -0.0181603 -0.0441198 6.05683 -0.0082617 -0.0307788 7.00178 -0.0119569 
-0.0271996 7.93113 -0.0205917 0.0262591 8.99652 0.00593962 -0.0736524 9.83197 1.05786 
-0.0419906 9.72568 2.04189 -0.0089195 9.78778 3.00817 -0.0453559 9.74426 4.01519 
-0.144846 9.7882 4.98889 -0.0248904 9.70635 5.9834 0.00297147 9.7791 6.9891 
-0.044054 9.76084 7.94393 -0.00490535 9.77132 8.93021 -0.0334672 1.01754 9.8108 
-0.0908695 2.06872 9.79205 0.0407532 2.99462 9.71299 -0.00202936 3.90416 9.81253 
0.0226151 4.9951 9.75462 -0.0192247 6.09325 9.78201 0.0010952 6.99732 9.70871 
-0.069109 7.91295 9.79654 -0.0129098 8.98577 9.80549 9.7957 -0.00399998 1.0574 
9.81184 -0.0374544 2.05556 9.73102 0.0285417 2.98501 9.87267 -0.0534059 4.0271 
9.76288 -0.0985231 5.00458 9.75027 0.002612 5.99994 9.80626 -0.0150285 7.00077 
9.75855 -0.0599875 7.93725 9.813 -0.053404 8.93512 9.78931 1.0096 -0.0259662 
9.7387 2.07916 -0.044833 9.71771 2.99995 0.020936 9.74711 3.90707 -0.00395004 
9.75409 5.00398 -0.0583956 9.78931 6.09103 0.0236208 9.7038 7.00156 0.0331224 
9.80439 7.91055 -0.0684167 9.8123 8.99452 -0.0206303 9.75271 9.78094 1.11048 
9.8223 9.78643 2.15125 9.77278 9.78498 3.01541 9.72623 9.74842 4.00157 
9.89316 9.80687 4.99797 9.76747 9.77655 6.03119 9.80166 9.80886 6.96086 
9.83297 9.80998 7.87043 9.80735 9.79924 8.9371 9.79644 1.00374 9.78626 
9.83993 2.11264 9.80633 9.74493 2.98872 9.77839 9.76637 3.87369 9.81532 
9.76317 4.9944 9.79019 9.77214 6.10877 9.79737 9.67254 7.00331 9.70383 
9.80039 7.8782 9.79427 9.82153 9.00101 9.76643 1.01853 -0.0124495 -0.00505507 
2.05193 -0.0631357 -0.0182639 3.00632 -0.0406316 -0.028838 3.96441 -0.029435 0.0102269 
5.00152 -0.0261439 0.0280874 6.0351 -0.0300327 0.0147732 7.0024 -0.0261918 -0.0217976 
7.9539 -0.0491021 0.00876805 8.98444 -0.0234971 0.0230009 1.03734 -0.0861765 9.76742 
2.07801 -0.114089 9.72224 3.00978 0.0448338 9.70934 3.93564 -0.0667885 9.72126 
5.00591 -0.0848767 9.71514 6.05534 -0.0771639 9.72868 6.99036 0.028775 9.75967 
7.91191 -0.0741459 9.74195 8.96181 -0.0709588 9.8188 1.01255 9.85029 -0.00138731 
2.05722 9.81524 0.0166757 2.99697 9.77048 -0.0567026 3.95716 9.8065 0.0695096 
5.00244 9.75338 0.058074 6.05741 9.83744 0.0646825 6.9872 9.77299 -0.0250181 
7.92003 9.84147 0.0236712 8.9548 9.85824 0.00226203 1.05082 9.83051 9.7218 
2.1389 9.81008 9.69925 3.01984 9.75815 9.74549 3.87965 9.81244 9.74743 
4.99896 9.85962 9.78318 6.12722 9.88556 9.82815 6.97583 9.71202 9.73156 
7.83597 9.81092 9.75876 8.98651 9.8314 9.78863 -0.221983 0.360207 4.99584 
-0.206791 0.317295 1.89017 -0.355885 5.64121 1.90977 -0.310092 8.34433 3.45439 
-0.194516 8.34986 0.364116 -0.334 5.65331 8.09251 -0.136673 8.34822 9.581 
-0.308381 8.3432 6.53798 -0.178814 0.321379 8.11122 -0.124934 2.9748 9.55353 
-0.113589 2.98603 0.383365 -0.561299 5.64419 5.00455 -0.324803 2.97676 3.47591 
-0.304014 2.98113 6.51649 -0.00107889 0.309125 9.59576 -0.157696 0.297576 6.55384 
-0.17171 0.266324 3.45086 -0.00279561 0.288599 0.395758 -0.207673 4.31892 8.88534 
-0.17561 5.63854 9.58013 -0.243245 6.99018 8.89953 -0.361591 6.99162 7.30426 
-0.405726 8.32405 8.08768 -0.141527 9.54252 8.89838 -0.191902 9.60326 7.3033 
-0.251149 9.55127 5.79077 -0.208955 4.31109 1.10654 -0.13358 5.63849 0.380957 
-0.294817 6.98529 2.68735 -0.239123 7.00076 1.10733 -0.371543 8.33981 1.90068 
-0.249766 9.54924 4.20793 -0.210563 9.62165 2.69273 -0.20266 9.51252 1.11875 
-0.329472 8.32327 5.00217 -0.409908 6.98175 4.22642 -0.398461 5.65461 3.48031 
-0.393587 6.98196 5.77658 -0.350114 5.6493 6.52255 -0.378108 4.30834 2.6835 
-0.328649 2.98593 1.91609 -0.270702 1.64611 1.10182 -0.391506 1.63868 2.67632 
-0.309263 1.64124 4.22919 -0.400498 4.31275 7.30806 -0.332526 2.98291 8.08968 
-0.338608 1.639 5.77184 -0.359718 1.64433 7.31476 -0.26925 1.63597 8.90135 
-0.433186 2.97373 4.99708 -0.524339 4.3116 5.76333 -0.478915 4.31582 4.236 
-0.123227 0.372421 8.88108 -0.246122 0.244837 7.30541 -0.147561 0.298573 5.76523 
-0.163743 0.28487 4.22319 -0.239266 0.271476 2.68909 -0.1423 0.373835 1.12383 
-0.188514 3.68176 9.24699 -0.129344 4.33201 9.59071 -0.233572 4.98112 9.24788 
-0.318877 4.98189 8.46652 -0.207874 5.64418 8.8809 -0.331257 6.32136 8.47023 
-0.279824 6.32081 7.71041 -0.309685 6.9804 8.09137 -0.249105 7.67539 9.24735 
-0.345217 7.6611 8.47755 -0.279303 8.33396 8.90062 -0.304887 7.65801 7.70828 
-0.330218 7.64897 6.93301 -0.340682 8.33489 7.31629 -0.176522 9.0001 9.24564 
0.0209655 9.64574 9.58132 -0.329137 8.99337 6.9267 -0.315061 9.00256 6.15419 
-0.167295 9.65132 6.55192 -0.197384 9.6035 8.10038 -0.294879 9.03218 7.70062 
-0.306249 8.99394 8.47191 -0.116818 6.98882 9.53379 -0.23655 6.29138 9.2461 
-0.25702 3.6631 0.745753 -0.124102 4.33602 0.396574 -0.321907 4.98146 1.52707 
-0.226577 4.98643 0.750948 -0.249918 5.65045 1.11447 -0.260324 6.32486 2.28994 
-0.292551 6.3258 1.51925 -0.331866 6.97363 1.91636 -0.356009 7.64923 3.06993 
-0.31393 7.66962 2.28459 -0.335784 8.32362 2.68099 -0.340096 7.64628 1.51775 
-0.233825 7.68086 0.736693 -0.272654 8.32346 1.11297 -0.280087 8.99507 3.83379 
-0.338932 9.00837 3.07764 -0.202412 9.61471 3.43264 -0.235941 8.99795 0.737174 
-0.0988453 9.5829 0.400435 -0.270517 9.62145 1.89722 -0.314375 8.99845 1.52083 
-0.253235 9.0112 2.30255 -0.142266 6.98344 0.376094 -0.216249 6.29096 0.741865 
-0.139681 9.41394 4.99005 -0.316872 9.00004 4.60709 -0.397252 8.32889 4.22321 
-0.299668 8.99863 5.38834 -0.38155 8.32255 5.78322 -0.321959 7.65643 3.83636 
-0.325992 6.99527 3.46343 -0.397227 6.30535 3.0677 -0.344041 5.65466 2.68651 
-0.45881 6.33032 3.82251 -0.462219 6.31211 4.63936 -0.516819 5.64603 4.23064 
-0.368387 7.66351 6.15426 -0.287323 6.98649 6.52349 -0.445223 6.30999 5.34617 
-0.442211 6.32425 6.16799 -0.502525 5.65153 5.77088 -0.345061 6.31462 6.9356 
-0.370597 5.65417 7.30486 -0.435861 6.99189 5.00255 -0.32111 7.65628 5.34684 
-0.340523 7.65461 4.64491 -0.243469 4.97968 2.29457 -0.341173 4.3197 1.90977 
-0.323255 3.64142 1.52579 -0.189831 2.97485 1.11777 -0.263483 3.64209 2.28949 
-0.335934 3.64668 3.06573 -0.362191 2.97253 2.67937 -0.229806 2.28979 0.733587 
-0.156861 1.61531 0.387055 -0.218766 0.94761 0.742305 -0.318954 0.971467 1.50714 
-0.308241 2.31334 3.07153 -0.402115 2.30077 3.81659 -0.320317 1.6243 3.46814 
-0.31306 0.939027 2.30661 -0.293291 0.958252 3.07369 -0.321426 0.949207 3.8261 
-0.263174 0.969727 4.63434 -0.392445 1.62863 1.91064 -0.297929 2.29919 2.288 
-0.352797 2.31223 1.51259 -0.274531 4.98267 7.70617 -0.326907 4.31126 8.09389 
-0.333672 3.64658 6.92973 -0.289649 3.64274 7.70468 -0.364417 2.97345 7.31478 
-0.326285 3.64193 8.47087 -0.231585 2.98124 8.89708 -0.380848 2.30245 6.1789 
-0.282428 2.31298 6.9307 -0.306932 1.61842 6.52023 -0.248998 0.965203 5.36378 
-0.321144 0.943133 6.17042 -0.297781 0.970081 6.93294 -0.299151 0.932813 7.69088 
-0.276627 2.29507 9.24433 -0.158977 1.6258 9.56349 -0.310929 0.967552 8.48292 
-0.204536 0.959996 9.26046 -0.37516 1.62824 8.08977 -0.376984 2.3095 8.4794 
-0.273266 2.30535 7.70813 -0.375014 1.62884 4.99674 -0.338305 2.30336 5.3665 
-0.36577 2.97189 5.77301 -0.342264 2.30482 4.63493 -0.391076 2.973 4.22524 
-0.499287 3.64291 6.17728 -0.424019 4.31111 6.51594 -0.419612 4.97516 6.93795 
-0.54119 4.99729 6.18294 -0.516975 4.97846 5.36749 -0.482368 3.646 3.81961 
-0.364576 4.31404 3.47445 -0.513465 4.98194 4.62908 -0.518581 4.9761 3.81541 
-0.420183 4.98601 3.05688 -0.552969 4.31728 4.99502 -0.439561 3.64647 4.63526 
-0.43868 3.6465 5.36696 9.82267 0.379942 4.99392 9.8702 0.317233 1.87774 
9.66895 5.64919 1.89054 9.7672 8.3007 3.44607 9.91765 8.35283 0.35921 
9.72196 5.64885 8.09674 9.8314 8.34751 9.59231 9.78115 8.31637 6.53521 
9.95117 0.317865 8.13231 9.96103 2.99041 9.43493 9.78757 2.97483 0.370415 
9.45612 5.65111 4.99852 9.64192 3.0101 3.44912 9.64602 3.01121 6.55397 
9.82514 0.319146 9.52193 9.88356 0.291079 6.54405 9.87548 0.277421 3.4553 
9.84994 0.310086 0.390649 9.85034 4.31515 8.85294 9.8835 5.6369 9.61116 
9.86283 6.98209 8.85079 9.62083 6.99868 7.30645 9.78969 8.33673 8.07884 
9.99245 9.49375 8.87846 9.86824 9.57759 7.34752 9.92753 9.61982 5.74206 
9.86194 4.30962 1.13682 9.87042 5.62685 0.370476 9.67677 6.99178 2.68763 
9.87382 6.98647 1.13152 9.77754 8.34295 1.90628 9.89056 9.60892 4.23818 
9.89762 9.58676 2.6454 9.89586 9.48554 1.11251 9.66461 8.3399 4.99633 
9.55516 7.00643 4.24394 9.61295 5.64319 3.45312 9.53719 7.00992 5.76449 
9.63031 5.63937 6.54396 9.69495 4.31434 2.68339 9.68244 2.97396 1.90367 
9.89766 1.65224 1.12475 9.72632 1.66397 2.67359 9.73598 1.65203 4.22497 
9.70778 4.31356 7.31321 9.7011 2.97488 8.09677 9.71336 1.64344 5.77239 
9.73503 1.66452 7.32072 9.8389 1.65011 8.86905 9.50463 2.96985 5.00121 
9.42882 4.30845 5.77009 9.42652 4.30786 4.22626 9.85126 0.413053 8.9096 
9.84038 0.305828 7.33999 9.88297 0.335846 5.73456 9.8 0.338444 4.24952 
9.86926 0.308735 2.65953 9.89126 0.406102 1.10747 9.79035 3.67104 9.2505 
9.86549 4.33945 9.58698 9.80378 4.98681 9.26272 9.8565 4.98234 8.46393 
9.85753 5.64918 8.84846 9.82395 6.31504 8.45509 9.73664 6.31417 7.7014 
9.68577 6.99092 8.09368 9.7718 7.69538 9.24854 9.78512 7.65758 8.46151 
9.90851 8.3121 8.86327 9.74749 7.62752 7.70196 9.62494 7.67669 6.90288 
9.69879 8.30604 7.31988 9.87668 8.98909 9.26519 9.8775 9.56787 9.55936 
9.83488 8.98962 6.9191 9.80564 8.99741 6.18138 9.90695 9.58442 6.53445 
[...]
CELL_DATA 2484
SCALARS scalars double
LOOKUP_TABLE default
-4.7287260233 -5.8306996905 -3.0829494417 -2.9937418927 -5.0391129864 -7.3382608814 -5.6109017088 -4.7882053939 -4.9041161234 
-7.7190120848 -6.0458979901 -4.7725257974 -5.2197410547 -6.1981794346 -6.3754881997 -4.6889492733 -2.9997392526 -5.8200267898 
-2.8856329453 -3.0882581992 -4.7940491506 -4.951287943 -6.0360935653 0.54430287799 -1.1118294349 0.32401522447 0.43219555065 
-0.98121900274 -0.97773445424 0.64379164264 0.66030770624 0.9817116727 -0.99793809339 0.48639089331 -1.4946236175 0.9332625855 
0.42260887805 0.78932697578 -0.8222752191 -0.061642249057 -0.71856102982 0.62350547439 0.0017945050858 0.19534383773 0.6557227337 
-1.0164273507 0.078813325004 -0.33694183708 -1.2076112612 0.44580938276 -0.98694192317 -0.22470469706 0.86398921818 1.9003678594 
0.45204502382 1.4413819205 7.8213705454 4.9499150518 2.5104018099 -0.20872510185 2.2958179038 1.7105216378 2.3077655282 
7.2606854462 8.4384675161 8.5350563449 7.6400003025 7.0816012254 1.9977085431 5.0004951293 6.9529142231 -0.070600259097 
1.1024389696 0.42385993044 1.663200399 0.58910630428 0.45196990976 0.66656202589 1.5086106504 2.2523922116 1.7285216866 
1.7227691511 0.055402080474 -1.0688905441 -1.1656661013 0.51490327938 -0.8441927436 -0.69783489024 -1.0935165439 -0.44910502274 
1.2697184794 0.035304259939 0.87309388349 0.63685293442 -0.44705334245 0.21354655091 1.3585254282 -0.12433774914 0.38723754051 
-0.90021954264 0.25383002139 0.51424752748 0.31726275867 -0.11894056405 -0.16733784489 -0.032658407523 -0.89663740108 -0.33412491198 
1.155651841 -0.81517677902 0.093270475531 -0.85861936626 -0.60186778539 0.48319358237 -0.60262960732 -0.0092439233341 -0.67199197629 
0.24053581076 0.0065661751277 0.18586936455 -0.65099477644 -0.80968363484 0.0034845145265 0.078390527409 0.0072752523634 0.90277907441 
2.1252334214 1.7446381027 6.6796708725 7.6064802937 7.5494675288 7.328938341 1.5692774453 1.3306726934 2.6865976374 
0.26273236583 3.4990763133 3.5625820376 6.8940607557 8.7628168339 9.0148937522 1.3696901749 7.9417741492 -0.037593432953 
0.14111606211 -0.01327099371 1.3806686397 1.4522584276 -0.24194396786 0.58862164923 1.2920440815 0.21668893405 1.3249810457 
0.23299452058 -0.62911381407 0.080748613526 0.01136505109 -0.12030429624 0.18648686467 -0.38815679915 0.16470453053 -0.043961041168 
0.0026573288385 0.36075161446 0.12492880522 0.55928541129 -1.0843605602 -0.14088206314 0.86780584622 7.5751482849 -0.13245509614 
1.095633437 0.69275431889 1.4576651432 1.0225442138 0.81757349562 0.45316627512 1.0838166423 0.31483481116 2.0821603077 
2.4479794882 3.7692971728 0.41625337844 -0.69312670549 0.66917139157 -0.19037705839 0.52036728747 1.3141638309 -0.41442444961 
0.20748208025 0.76373372447 -0.092561413557 1.1608875578 0.8310363099 -0.48598747498 1.3951604338 1.2610583268 1.5064180716 
0.59799173419 -0.4155068567 -0.059468830768 -0.93447472812 0.75120590065 1.340508109 -0.29372059291 0.88054935205 -0.70147851456 
0.2392734932 1.0709135194 0.84756699008 -0.69711374501 0.27345422695 1.5459157334 1.6134658995 1.5963272108 0.41420966329 
0.56912408573 0.25869666513 0.69476266749 0.33906516147 -0.4686033499 -0.52511330758 1.1640763592 -0.29722870303 -0.45868364237 
-0.98129007733 0.017516474612 1.2389185755 1.4178407101 1.5656467424 -1.0940317173 -0.64672245196 1.7161709934 0.87537123934 
1.1836796696 -1.523468121 -0.92748763083 -1.4363113455 -1.1597010324 1.2206501384 0.12070651646 0.9195610943 0.54553551671 
-1.4097723124 0.66132420259 -0.70369112211 -0.21878591012 -0.26577233022 0.21021273977 0.41271577037 -0.069873520072 -2.3216535947 
-2.2370872355 -2.0949017895 0.076965769173 -0.031943795852 0.50844420477 -1.7154066851 -0.49375499763 0.69548784832 -1.2878807627 
-0.55010307758 -1.2635248892 -1.3691613724 -1.263327804 -0.9396683068 -0.24698470852 -2.221915822 -1.053332732 -1.8742443207 
-1.9350591089 0.09233841225 -0.92071248604 -0.18285106632 -1.6875309278 -1.1283186206 -0.18940883372 -1.1280476882 1.3136525636 
-0.53610681733 -0.68954331029 -0.88365441157 -0.26022564921 1.3770528951 1.1423482946 1.4580313897 -0.064544338952 -0.29673103713 
1.3991321968 0.99424026815 -0.54866643279 1.3052804428 -0.71128361698 0.44235715566 -1.308618885 0.023976075529 0.87953863227 
0.7802634269 0.67512555269 -0.62165008772 -0.19315638913 -0.27452927341 0.37037811077 0.82265091345 -1.0900112021 -0.27833726626 
0.47968118063 -0.87740585112 0.75609712649 -0.42038274074 -0.76988652535 -0.9781591064 -2.5253613068 -2.0414294592 -0.88031465293 
-1.3425775789 -1.2915522221 -0.73823957398 -2.2413598362 -0.55058980001 -0.0086578306435 0.052688189405 1.5864871112 -0.95350001334 
-0.44338628958 -0.16614825376 -0.22942389163 -2.4685050026 -2.2662007198 -2.1793163468 -1.3626155577 -0.072193422096 -1.9703036632 
-2.3627590866 -0.72876133504 -0.19286523362 -0.96245520501 -1.0281551434 -0.7780317406 1.4509269568 1.3618230506 1.3099749093 
1.2212428035 -1.1061781409 -0.79206356134 -1.2914795671 -0.11664278294 1.3950561117 -0.76848295852 0.73593928936 -0.56161007219 
-1.6042756095 -1.2016194671 -1.7689094189 -0.31458009513 0.71911208684 -0.93024745708 -0.09221027624 -0.9406356002 -1.0568925882 
0.69533995929 -0.28036532941 -1.3738980365 0.026111802938 0.28838768826 0.51330969994 -1.7478434882 -1.1646567613 0.44628720637 
0.010655759199 0.74723351136 -1.14487023 0.86270527227 -0.29487409093 -0.064922465288 1.8039365378 -0.24557480361 0.39767570544 
1.9914870629 -1.0459725999 -0.12243633501 -0.92396890912 -1.3196383701 0.97071604536 -0.53548586058 0.74398225153 -0.55726116781 
-0.39494624948 0.98016873794 -0.012721127036 0.64095268224 0.7550849058 -1.5744280062 -0.14088023237 1.1206663696 -0.71604902098 
-1.5197746365 -1.6115193456 -0.69181784885 0.056869824118 0.33265857564 0.56872858041 -0.27432071708 -1.8549977089 -0.38712011689 
-1.032828659 -0.8346801731 -0.55564764429 -2.4250943963 -1.5130500669 -0.088270236693 -1.4857317003 -1.1553018989 -1.673201378 
-4.3464701293 -3.561176454 -0.73598011873 -0.80069806712 -4.0058149504 -1.6441447115 -3.2564173337 -3.8493700233 -3.376012835 
-1.505728111 -1.2448714707 1.3574183701 -2.6807901682 -4.6573610051 -3.388773344 -1.728978991 -2.2382743616 -4.637460554 
-1.4279541951 -2.2698812444 -1.6262980585 1.1695738638 -1.2545750906 -1.8186662121 -0.42680286287 -1.0318943115 2.3228343726 
-1.6034897468 0.2908647811 -1.0287803356 1.0033914565 -0.39623258237 0.8329073409 0.11972879027 -1.6246460975 1.3140400339 
-0.89878507075 0.77570657713 1.2099175624 1.4006583918 1.2053646425 -1.4839130719 -0.92250019887 -2.0070611411 -0.99297109263 
0.042102382944 -1.812493853 -0.1492286161 -0.3383558377 -1.4650040889 -0.19335339044 -1.2333337109 -0.14219701297 -0.90524003691 
-0.15830464351 -0.57596757356 3.1328474326 5.0336021375 0.48616778748 -0.56733987819 -0.90400880154 -1.8023900804 -1.46091635 
2.2390645611 6.6784201086 4.9922914635 3.4884411719 1.8841710961 -0.010873562981 5.292676976 1.59490447 -1.3659733144 
-2.2295736281 -2.386358976 -2.1196678119 -0.58393548136 -0.16154079826 0.38570728986 -1.5592127429 -0.75088382996 0.36910625554 
0.23513764014 -0.77189537083 2.0117498129 -1.7002611298 -0.77628663776 -0.55119709295 1.1609086025 0.72714922414 -0.10241297926 
1.8943976706 -2.0707357892 -1.7175264578 1.4994212433 2.0739528312 -0.37186286481 -1.1599062983 -0.20703276889 -1.8095596641 
0.99130946285 1.2151394659 -1.4458098929 -0.6103600303 -0.12996164744 1.7199613674 -1.7768980882 1.6124228605 0.22863484855 
-1.9288309866 0.6860940973 0.97241067242 1.2882240149 -0.18217381417 -2.3945490417 -0.25255722752 -1.3603168649 0.24769635142 
0.28708449883 -1.2476017679 -1.2164631436 0.57014103214 -1.2257987944 -1.0170405204 -1.580898029 -0.83372302558 -1.3311285056 
-1.0168234137 -1.2174929032 6.2219642034 5.9841145943 7.8080886396 7.9548735419 -0.1797813572 1.3369167118 2.4390513039 
0.060708184295 4.3599267671 4.3611505249 7.8406733572 2.9847257719 2.681167685 -0.24386066128 4.6158812835 1.1587640181 
-0.96034621725 0.77151514746 -0.44422478323 -1.7680429396 -0.92958582548 -1.2698703211 -1.9882920886 0.15088131753 0.62990671001 
0.57013146007 0.82369054188 1.279853427 -1.5269985878 -1.7178415162 -0.77269353748 0.95679558506 -1.5577257745 0.21684406786 
1.4061860978 -1.6045054748 0.83346498933 0.044304871765 -1.6015292593 -4.3914493745 -0.79976466953 5.9907560556 -4.3943994993 
-0.82595597691 -2.4285389734 -1.4362686726 -1.461353377 -2.3358010279 -0.63308460633 -1.3417788247 -2.9364863023 0.51811927427 
0.99536237954 2.4917067188 -2.2884962657 0.40589187957 -0.41403438344 0.0067630913626 -0.17619617563 -0.88343194285 0.92641754236 
0.41934674218 -0.17950251308 -0.24749212959 -1.5485439094 -1.6508338451 0.69776290775 -0.69891254246 -0.83800120178 -0.77910596747 
-2.4346350761 -0.17847365355 0.13274676808 0.42541294025 0.24517189344 -1.5443441228 -0.45239141103 -1.8331318672 0.58550444432 
1.0174536708 -0.48582357478 0.35486386867 0.79297867687 -0.67387795201 -0.43180435362 -1.0893407434 -1.3683561471 0.46340753387 
0.32350688713 0.79209693667 -1.5776458759 -2.2345120527 -0.43400808389 -1.5049537957 -1.307043498 -0.55153177571 -2.0656304028 
-1.5264114537 0.03643154427 -2.1013618485 -2.3403931865 -2.5507157614 1.7116185196 -0.7647329575 -0.4916134513 -1.1713414095 
-0.77034920539 0.13584691442 -1.2694885883 0.022939253576 -0.66331974675 -1.3461459139 1.4920916642 -0.063489453096 -1.6371472378 
0.81604070871 0.76284515795 1.3256326939 0.3616316767 1.5433753277 -0.26456656136 2.094447046 -0.72930576511 0.60104234986 
0.29546401538 0.79744673586 -0.88433497909 0.39564558384 -0.39079388064 0.54089989485 -1.2270815127 1.8753382872 2.2006913711 
2.2542094773 1.5470325562 0.14460571811 0.93628471092 0.49492385249 1.3508258546 0.1198188745 -0.26248012068 -0.48196452209 
0.7899410573 1.1348078356 0.88415343168 0.75647344378 0.14237411073 1.7755611209 0.57778742894 1.6480735113 0.46919997656 
-0.21318880017 1.4511405061 0.75412173587 1.3997933312 1.1415422232 -0.11820284725 -0.08872350328 1.6222481925 -0.021837453171 
-0.26612170149 -0.55398120802 1.0888381158 -0.26413742981 -1.0936162047 -1.1542683581 -0.79957666937 1.1744277899 -0.71583750604 
0.1639530583 -0.68676612259 -0.62695655737 1.9390178336 0.69795876259 -1.1102489693 0.55790535745 0.27394517276 0.89115969462 
-0.5809599071 2.2990620061 2.0775634186 2.505184976 1.5039548246 0.25447409471 1.3427310872 1.0128461981 1.5869117803 
0.45132383945 0.43413214718 -0.1165504479 1.0375576393 1.1082755342 0.7053715801 0.52036670596 1.0811168155 0.57088346136 
-0.40893471465 0.25586066971 0.77055432426 0.32498824316 -0.90725493137 -0.72221718033 -0.27567029851 0.78388121348 1.1063363604 
-1.2820178055 -0.18932499526 1.5962670288 1.8601466287 2.1404437496 0.29905981951 -1.6415198236 0.89010654729 -0.4594796669 
0.6338891159 1.1942350214 -0.43426875801 0.41695743069 1.4759542793 -0.3716031511 -0.79950916444 -0.94705834053 -0.16765652072 
2.1257815145 1.8024655056 2.3445806379 1.1055382989 -0.32998621089 2.3173219651 1.1773620902 1.5187755927 1.9809801422 
-0.074890576832 1.1078698452 2.5155485153 0.55136602449 0.03305094332 -0.064917674767 1.2239337852 -1.2667102529 0.53802306881 
-0.72004332092 0.69245866111 0.38803214513 -1.0044111183 -0.38647679009 -1.0187107703 0.15220492325 0.13556158941 0.97347259818 
-0.94407690097 -0.26892479569 1.0605599847 0.75086909415 1.5592938307 0.26052403052 -1.6530165811 -1.1323572032 -1.0601415963 
0.14760244756 0.27831009245 0.97899558784 0.48387541785 -0.92938829967 0.77035484525 -0.47190544175 -0.68104876881 0.99122590203 
-0.26472671 0.7946511676 -0.037740688204 -0.13456041583 -0.10545512813 0.14125629694 1.6487640786 0.92137754265 0.0021442129633 
0.37396829096 1.7664186976 -0.040997207428 0.66831336766 0.21599969457 -0.43140365074 1.3524413496 1.3213456803 1.0820839713 
-7.6015049461 -6.5617219533 -9.0650347248 -9.0475319639 -7.258499869 -6.3611776273 -4.8589433874 -4.5294357495 -5.340759636 
-6.4668779464 -9.0693326893 -9.035067107 -3.1701323938 -0.87879364826 -2.6843084591 -8.312002496 -6.819211981 -7.0854721483 
-7.9833372866 -6.6993737686 -7.9181056351 -9.2283887207 -9.0539372855 -9.5592734385 -6.6192999739 -9.9106522987 -9.573521522 
-9.5670503596 -9.8784520354 -9.8859490582 -9.8944765078 -9.9042574057 -9.9026180773 -9.5184012646 -9.6224684749 -9.6247524981 
-9.9850385357 -9.8511290097 -9.9557474013 -9.9963417498 -9.8300063705 -9.7805822127 -9.9988218047 -9.8960220328 -9.8947099912 
-9.9696534233 -9.8819119251 -9.8848468386 -9.9999966703 -9.969155868 -9.809228747 -9.9982701673 -9.6618578291 -9.6178247909 
-9.0520302765 -9.5464271162 -7.8180797069 -9.2840777896 -6.7142258252 -9.9735628088 -9.9255175451 -9.7061082548 -9.8102310784 
-7.0390685434 -8.8492285174 -8.0644478617 -7.0424706402 -9.2159563499 -9.911441453 -9.34094861 -9.0160269052 -9.896810566 
-9.9715605199 -9.8992566026 -9.7524832243 -9.9989453645 -9.7737947936 -9.8546438905 -9.9988755521 -9.6889026558 -9.7412908232 
-9.6789146828 -9.5745235289 -9.8159827161 -3.7983961686 -9.8956975452 -9.9025630038 -9.8882641681 -9.9338645299 -9.190651071 
-9.4232037641 -9.4873815495 -9.8469506217 -3.7894669937 -9.5889860273 -9.4839577861 -9.7244915257 -9.7416028296 -9.6911486448 
-9.9332038122 -9.9312451971 -9.8185988694 -9.9419225274 -9.7494201616 -9.6709880241 -9.6714544843 -9.7216373635 -9.6976924327 
-9.9014511931 -9.8956547022 -9.945833125 -9.9360159038 -9.9458097101 -9.8893589307 -9.8160808333 -9.8085428706 -9.8827448432 
-9.9246710837 -9.846106448 -9.9395217169 -9.897340934 -9.881658387 -9.9433547704 -9.9189766281 -9.9602932951 -9.6830112029 
-9.9246777623 -9.7906093518 -9.1547663205 -7.872557097 -8.6244144571 -9.1571682921 -9.6386831703 -8.4804146859 -9.7143590892 
-9.6938875089 -9.0940883571 -8.9950875225 -8.3177803946 -9.3175469381 -9.1411998379 -9.8449996337 -7.7408310317 -9.8888243395 
-9.9419380125 -9.8522500943 -9.9786894058 -9.8998686399 -9.8538549525 -9.8423568412 -9.9644547458 -9.8620622981 -9.8183034312 
-9.8025742844 -9.8317144191 -9.52139991 -9.6012961463 -9.597872556 -9.9624498241 -9.7876187648 -9.9315723565 -9.9700262942 
-9.61724906 -9.9142585572 -9.6006232974 -9.4844554603 -9.5765140657 -8.8094781484 -9.72011248 -8.8874586111 -8.8146474344 
-9.9906928795 -9.9606323404 -9.9736727594 -9.7575318521 -9.9021267696 -9.9903979248 -9.9318374983 -9.9010189757 -9.9437762535 
-9.8550254955 -9.907858006 -9.8210062501 -9.9868938623 -9.8931408575 -9.8294636532 -9.7923781422 -9.8744812497 -9.9747750895 
-9.7935014516 -9.9150587798 -9.8621551967 -9.8565071158 -9.9825029176 -9.8983525544 -9.7713479508 -9.9550406726 -9.7700722229 
-9.8904942775 -9.9550654396 -9.8945344125 -9.892511856 -9.8690935057 -9.8619198441 -9.9084800049 -9.9637914019 -9.9582409114 
-9.9251283023 -9.9553016543 -9.9507210912 -9.7647904394 -9.9600402376 -9.7061781034 -9.6457988055 -9.8210941298 -9.9426848927 
-9.951343451 -9.9955236063 -9.9645757363 -9.9339797721 -9.9802867842 -9.93905399 -9.9570242764 -9.9814380459 -9.848699024 
-9.8859024026 -9.9891946354 -9.936575586 -9.8860976543 -9.8806783995 -9.9192626908 -9.9615055229 -9.8732542386 -9.8969387625 
-9.9383802288 -9.9576796989 -9.8909637432 -9.9089840908 -9.8833556708 -9.9391405985 -9.9731461718 -9.9013028649 -9.9588065339 
-9.8744766204 -9.9619750297 -9.8985368399 -9.4841466044 -9.8428307007 -9.4938188379 -9.5275123195 -9.9606543715 -9.5553995503 
-9.9175033781 -9.9590443047 -9.9030496313 -9.5133076081 -9.9437057314 -9.6193971009 -9.6726917522 -9.9538699703 -9.9339222136 
-9.9339823001 -9.9555561841 -9.8535178998 -9.8686120126 -9.9534801475 -9.9595630051 -9.5984943845 -9.8750508945 -9.6399897028 
-9.7365336618 -9.9606737788 -9.9488938768 -9.9606001362 -9.831540475 -9.9513951274 -9.8921332072 -9.9126257087 -9.9004043027 
-9.9853248906 -9.9531211789 -9.939312287 -9.949454987 -9.8343590721 -9.8568540028 -9.8432536973 -9.9362507913 -9.9134393461 
-9.8707476549 -9.886916255 -9.9742244739 -9.9387290898 -9.8002682016 -9.9518688304 -9.8705233153 -9.9329132736 -9.8980350357 
-9.8936224549 -9.8806688671 -9.8738938773 -9.8048582338 -9.9046593582 -9.9010770987 -9.8006370502 -9.8737275839 -9.9024022817 
-9.8713660847 -9.8724158317 -9.9605822582 -9.8687170293 -9.9641043659 -9.9372815216 -9.8147654946 -9.8812469518 -9.94063492 
-9.8091553112 -9.9581783338 -9.8947040938 -9.7826763759 -9.9629122028 -9.971393937 -9.9901601335 -6.7648338275 -9.786637367 
-9.2156124892 -9.476928911 -9.9298667629 -9.6840144687 -9.6003847531 -9.734670608 -9.3945308052 -9.7868620788 -9.8436755639 
-7.5992417727 -9.5528536427 -9.9335700548 -9.861158108 -9.8638944321 -9.8713153339 -9.7963095318 -9.8631808883 -9.8645043538 
-9.9234707067 -9.8971752271 -9.97268134 -9.9420447089 -9.891501847 -9.8317648287 -9.9363700867 -9.8342941177 -9.9336777158 
-9.874093387 -9.887290309 -9.8443424604 -9.9658042818 -9.8648477328 -9.9180806412 -9.9858796095 -9.9854547507 -9.912420217 
-9.9062944959 -9.9902337502 -9.9035430876 -9.9667966254 -9.976562748 -9.9858521493 -9.6455685347 -9.9818329137 -9.9224035951 
-9.8909267673 -9.9331733469 -9.9157044886 -9.9776363325 -9.9052942542 -9.991948316 -9.8890867191 -9.9593031952 -9.9998400425 
-9.8001340045 -9.8753403482 -9.9820724605 -9.7882722828 -9.7658782113 -9.9147960673 -9.9934738226 -9.8957183831 -9.9814662463 
-9.9263744175 -9.8460713292 -9.99886881 -9.8179931056 -9.9747994205 -9.8967847253 -9.8224758972 -9.8615663154 -9.9855660105 
-9.8594314708 -9.8426404747 -9.9448480479 -9.8922353137 -9.9515176293 -9.9616236401 -9.9991952175 -9.769848005 -9.9518856321 
-9.949287859 -9.9964613659 -9.8926928967 -9.6484203367 -9.8628016002 -9.9917169717 -9.9156709785 -9.8462969674 -9.8691494642 
9.3655557916 9.6188885305 9.3602883004 9.3554147094 9.5660187611 9.4947582624 8.8530126865 8.0947717383 8.655038158 
9.844922162 9.9440406125 4.9086296236 5.2512177561 7.1344210632 8.3501183478 9.1499044269 8.8453679369 5.71029234 
8.9528834332 8.846074935 9.1197233668 7.1413079527 9.9390143677 9.9532330157 7.212331027 9.9655994343 9.9434962158 
9.9284182433 9.9450491813 9.9991589811 9.8364543517 9.9664598316 9.9690756567 9.8512305844 9.9992626275 9.9887840811 
9.9728419562 9.6677809811 9.9530747221 9.9447102418 9.926604008 9.9982854913 9.9690000749 9.967629948 9.9161161719 
9.9259520634 9.9572918038 9.9548050443 9.9774857452 9.9200480667 9.6715344947 9.9060032546 9.9034584915 9.9313633379 
9.405364319 9.8890434945 9.3101205521 9.769954861 8.4812114081 9.9376916281 9.9936450128 9.8970401541 9.9272046007 
9.8707056192 9.1262682325 9.4753819215 9.8157723918 9.714322011 9.988244477 9.7755469605 9.7382837836 9.8817248254 
9.8276742716 9.8155585861 9.9367562521 9.971486281 9.9884957855 9.9372715525 9.9674792611 9.9648306472 9.9877876834 
9.9680183889 9.8637031041 9.9752115048 9.1294112039 9.8689071962 9.83684674 9.9972711018 9.923062981 9.9553310227 
9.9194148404 9.937358634 9.9759796771 9.0990376051 9.94313656 9.3483896789 9.850578998 9.4329227042 9.8095052634 
9.9592163376 9.7216786796 9.9762428793 9.9594443806 9.7731349902 9.7683425775 9.9084039031 9.8809705874 9.805718418 
9.8534976496 9.9704786551 9.78518413 9.8526297692 9.8359713017 9.7477417467 9.9988981571 9.7982607517 9.9938852623 
9.8437658025 9.9215060671 9.9682399791 9.8934542699 9.736971091 9.9095623953 9.7913745469 9.9758639439 9.9316712563 
9.994940278 9.9723195349 9.6103988778 9.9439723019 9.8125117812 9.5703782455 9.9904502308 9.7225630714 9.9167575373 
9.9958894665 9.9608083144 9.9866700487 9.7012288643 9.4755886355 9.456412823 9.951749009 9.9019595165 9.929101973 
9.8178933143 9.9736621695 9.9812718303 9.8981168262 9.9619789283 9.9248153825 9.8615650131 9.9718332936 9.9483966457 
9.9957528836 9.9770153975 9.9726076131 9.6408171543 9.9626297613 9.9916052631 9.9922318127 9.8030911685 9.9970371382 
9.95965214 9.9674735505 9.6462599846 9.662231231 9.7904922786 9.8241880407 9.9180199444 9.3177839254 9.8119893609 
9.9808854446 9.9375070156 9.9715187074 9.9160806864 9.8966875043 9.9985049788 9.9537244121 9.890492939 9.8342802173 