# vtk DataFile Version 5.1
vtk output
ASCII
DATASET POLYDATA
POINTS 1244 float
-0.307858 -0.409741 -0.617681 -0.554969 -0.831164 11.0995 -1.41866 10.6979 -1.27784 
0.977418 9.60822 10.0341 10.2867 -0.0868847 -0.110912 9.81346 1.35252 10.1704 
9.82299 9.47702 0.482229 10.458 10.8104 10.6792 -0.58231 -0.485462 0.768081 
-0.959123 -0.859098 1.73007 -1.42275 -1.36829 2.74217 0.291313 -0.677616 3.96356 
-1.12668 -1.53613 4.88906 -0.757168 -0.821505 6.17523 -0.669272 -0.569635 7.48434 
-0.770501 -1.02892 8.50548 -0.856285 -1.46538 9.47943 -0.0571642 0.744643 -0.508895 
-0.846763 2.15547 -0.915758 -0.360889 2.84005 -0.0435407 0.0594849 3.53856 0.371393 
-0.65345 4.81607 -0.959792 -0.681367 5.85881 -1.17694 0.0205597 6.37326 0.548427 
-1.09399 7.76868 -0.777887 -1.28651 9.23963 -1.07248 0.485915 11.2814 -0.114121 
-1.25378 11.243 1.25528 -1.52665 10.4465 2.77149 -2.03543 9.45456 3.79647 
-1.95413 10.0114 4.90011 -2.19072 9.70361 6.26521 -1.12403 10.3537 7.35814 
-0.254207 10.8368 9.18777 -1.89066 10.9681 9.75905 -0.549539 0.459555 11.0286 
-1.02608 1.6114 9.79082 -0.931651 3.18978 9.88307 -0.491681 4.7831 10.8153 
-1.95766 4.74599 10.8752 -0.573903 5.56992 11.067 -0.911099 6.91978 10.4299 
-1.57454 8.64948 10.3323 -1.00158 9.56543 11.8475 11.6181 -1.0087 0.785876 
10.8234 -0.940908 2.09664 9.87205 -0.234111 2.75698 8.85021 -1.76905 3.73211 
9.61127 -1.79084 4.74608 9.61863 -0.645471 5.6775 9.76486 -0.853928 7.35038 
10.4643 -1.22971 8.47071 11.5723 -1.82699 9.48846 10.638 0.733632 -0.260142 
10.679 2.16744 -1.15705 10.1496 2.81519 -0.583242 11.0984 4.03645 -0.39901 
10.34 4.86916 -1.16425 9.96074 5.49726 -0.535091 10.3962 7.20447 -0.18089 
11.1069 8.04623 -1.436 11.7761 9.76774 -0.828571 11.3956 10.9148 -0.527488 
9.5157 9.74138 1.27634 8.53909 8.52064 2.48353 8.28977 7.86293 4.08179 
10.4523 8.60345 5.27947 8.12671 8.31606 5.44219 8.17899 7.91205 7.44233 
8.80498 9.81972 8.10801 11.1466 11.2561 9.61323 11.1457 1.40539 10.7812 
10.9509 2.34862 10.6461 10.0474 3.65545 10.212 10.8808 4.12302 10.9348 
10.4008 4.84338 10.2595 10.8294 5.97193 10.8006 10.298 6.93427 10.2823 
10.947 8.10351 10.6335 10.0125 9.11737 10.7501 0.724054 -1.39183 -1.03641 
2.24255 -1.34585 -1.63645 3.41347 2.29177 1.32823 4.68171 -1.10347 -1.31849 
5.26602 -0.731876 -0.241811 6.04552 -0.705199 -1.57984 7.01921 -0.944992 -1.31536 
8.09184 -1.60925 -0.726306 8.90128 -1.36413 -0.472713 1.07989 0.808775 11.0523 
1.34718 -0.50934 10.6254 3.00151 -0.497479 10.779 4.82892 -0.279346 10.643 
5.3718 -1.53954 11.5797 5.58657 -0.643725 9.64463 6.52683 -1.20673 9.88321 
7.79693 -1.036 10.7872 9.24725 -1.52522 11.6481 0.155588 10.7904 -0.96724 
1.54562 10.8979 -1.37538 2.92553 10.3793 -1.22339 3.86401 9.67109 -2.17028 
4.85288 10.7765 -1.5761 5.89964 9.16074 -1.5071 7.29632 9.92034 -1.83807 
9.7433 9.88916 -1.01929 9.1132 11.7471 -0.88572 0.659246 10.9674 11.4246 
2.19435 10.9976 11.0666 3.48334 10.2824 10.3133 4.39298 8.74458 10.3594 
5.06108 10.6518 11.0152 5.22309 8.87513 10.9401 7.00245 9.35472 9.6406 
7.88605 10.9459 9.99577 9.18053 11.2647 10.8641 -0.63947 0.228854 5.10739 
-0.306179 -0.0977064 1.91557 0.0748639 5.68785 1.85253 -0.205254 7.93783 3.57893 
-0.418759 8.51723 0.0367546 1.49399 5.25546 7.45796 -0.489369 8.60583 10.0333 
-1.09573 8.92001 6.52786 -0.883764 0.0271868 8.08748 -0.509926 2.95196 10.2631 
-0.21245 2.91283 -0.0456642 0.706177 5.67658 5.85465 0.775565 2.80461 3.90608 
-0.518382 3.00818 6.63691 -0.658747 0.0908786 9.61276 -0.440367 -0.380107 6.36398 
-0.531199 -0.244615 3.51535 -0.77079 0.107542 0.199794 0.148129 4.31846 8.7791 
-0.39315 5.80442 9.52444 -0.0648754 6.80067 9.17535 0.636162 5.93198 7.1808 
0.190347 8.01563 8.19199 -0.92111 9.90489 8.60603 -0.0930256 10.5311 7.03304 
-0.797947 9.06895 5.7157 0.632217 4.15843 0.996375 -0.821773 5.66076 -0.112049 
0.475102 6.96122 2.88911 -0.233659 7.00746 0.990205 0.256164 8.15334 1.81925 
-0.776771 9.49309 4.09613 -0.670563 9.91462 2.47611 -0.490774 10.1255 2.83474 
-0.447241 7.61056 4.3312 -0.804223 6.85136 3.36246 -0.665978 5.50668 3.16458 
0.0216826 7.17407 4.73919 -0.261328 5.48037 6.19851 -0.120159 4.03827 2.4991 
-0.189541 2.96103 1.71532 -0.322423 1.49701 1.19435 -0.0693987 1.75319 2.85584 
-0.924063 1.72843 4.36743 0.602086 4.25554 7.15114 0.242527 3.08151 7.85709 
0.228082 1.60074 5.90506 -0.34772 1.45408 6.94761 0.405623 1.37452 8.96726 
0.133284 3.3558 4.4795 0.434473 4.05145 6.39314 -2.23057 3.49963 5.00273 
-0.456293 0.0216449 8.68013 -0.651687 -0.153172 7.3575 -0.521727 -0.00840215 5.72064 
-0.679374 0.0569482 4.27817 -0.40883 -0.106201 2.62003 -0.407264 0.00160637 1.12473 
-0.270999 3.5002 9.35885 -0.557672 4.5216 9.6192 -0.402914 5.1823 9.26724 
-0.599687 4.93178 8.12164 -0.0804953 5.79545 8.77314 -0.684474 5.10316 9.142 
1.21912 7.24987 7.19513 0.706456 6.95087 8.44494 -0.256414 7.46603 9.71711 
-0.270428 7.6264 8.74121 0.016034 8.12621 9.25986 0.0339488 7.58199 7.42945 
-0.283948 7.75436 6.37571 0.652871 7.89918 7.37751 0.0924766 9.06605 9.39645 
-2.06545 9.21882 9.48349 0.577617 9.08219 7.71096 0.356397 9.56271 6.39431 
-1.27526 9.7359 6.20559 -0.627231 10.3744 7.74852 -0.102259 8.85912 7.24664 
-0.284376 8.96029 8.08425 -0.957984 7.01266 9.71037 -0.27092 6.51369 9.84218 
-0.984049 4.08372 0.368331 -0.469906 4.53573 -0.148057 0.0545674 4.97082 1.68196 
-0.422033 4.78909 0.449432 -0.410542 5.65392 0.952977 0.0386181 6.37275 2.29148 
0.218082 6.40652 1.48658 -0.0699031 7.1691 1.92823 -0.53944 7.41669 2.91156 
-0.109232 7.75611 2.17242 0.873907 8.85065 2.86022 -0.147778 7.75809 1.41991 
-0.136069 7.42964 0.298871 0.152258 8.26711 0.967613 -0.0326808 8.87896 4.09085 
0.117542 9.28462 3.03265 -0.806934 9.36639 3.0508 -0.159803 9.3458 0.344933 
-1.48081 9.64418 0.985072 -1.32602 9.45831 1.30981 1.42326 8.84122 1.24577 
0.75452 8.97073 2.12668 -0.696408 6.92907 -0.132347 -0.037688 6.24016 0.598213 
-0.641342 9.46239 5.10467 0.273699 9.37642 4.28102 0.765156 8.39861 4.5587 
0.302485 8.72049 5.4029 -0.906789 8.94377 5.17727 -0.265204 8.05097 4.37415 
0.821694 6.95606 3.87451 0.179661 5.95378 3.32369 -0.571946 5.12661 2.14813 
-0.0282082 6.18255 4.44407 2.00637 6.78205 4.72118 0.855407 5.68747 3.85013 
-0.0345602 6.27404 6.14577 1.22758 7.93097 7.0816 -1.75947 5.85697 4.99004 
0.547031 6.61197 6.13609 -0.437788 6.17297 5.05934 -0.905359 6.32458 6.69902 
-0.470327 5.81966 7.19297 -1.44973 7.71811 5.34005 0.691894 8.48443 6.50154 
-0.250312 6.89942 4.6961 0.191202 4.85545 2.4941 -0.40136 4.24529 1.82995 
0.232258 3.63638 1.45497 -0.432406 3.10535 0.848591 0.408336 3.31962 2.11761 
1.33596 3.41946 3.1196 0.143318 3.27259 2.62093 -1.26594 2.53081 0.861307 
-0.389083 1.56795 0.201456 -0.380219 0.772656 0.430869 -0.164073 0.770845 1.59866 
0.131746 2.79146 3.14223 -0.718467 2.13398 4.25723 -0.515112 1.15261 3.52714 
0.02806 0.788671 2.55427 -0.10137 0.665613 3.00977 -0.532428 1.00422 3.76831 
-0.835264 1.21807 4.60977 -0.0332259 1.49813 1.8195 0.0136554 2.05512 2.25204 
-0.120559 2.16035 1.15419 0.231959 5.21883 7.04784 0.958087 4.54561 8.20922 
-0.0694606 3.9406 6.93899 0.492346 3.62398 7.82935 0.0838211 3.17972 7.43614 
0.294095 3.50826 8.24522 0.700552 2.83406 9.13162 -0.0572964 2.17563 5.99181 
-0.34917 2.09208 7.0211 0.431987 1.55613 6.22078 -0.548019 1.08808 5.56214 
-0.148643 0.649894 6.2671 0.0163883 0.582696 7.0177 -0.398731 1.02708 7.87455 
-0.301433 2.49421 9.48666 -0.412453 1.31786 9.6849 -0.341058 0.874238 8.698 
-0.180344 0.757386 9.68997 0.47695 1.43867 7.98888 -0.282609 2.23016 8.35914 
-0.0437895 2.26314 7.63262 0.231799 1.36286 4.63358 0.182068 2.16046 5.59139 
-0.269262 3.2831 5.54571 -0.255662 2.28518 4.79598 -0.565691 3.18349 2.94991 
-0.252982 3.35698 5.74358 -0.601539 4.27567 6.42034 -1.43588 5.04403 6.94437 
-1.08465 4.89939 6.12045 -0.631284 4.63206 4.95661 -1.0659 4.75542 4.68598 
2.49245 4.89431 2.41148 0.737122 5.17695 5.24507 -0.778025 5.34919 4.29097 
-0.638588 5.31753 3.16409 -0.279548 3.80743 4.80303 -0.769705 2.76588 4.31226 
0.326049 3.36397 5.38444 9.90759 -0.374006 4.93384 10.5009 0.0794462 1.94279 
10.319 5.80896 2.00085 10.6574 8.40504 3.44961 10.2807 8.16105 -0.0933013 
10.1631 5.76476 8.11877 10.3938 8.44498 9.778 10.2066 9.02187 6.1783 
10.1797 -0.0810488 7.51113 10.9098 2.90516 9.03931 10.2274 3.20872 0.330076 
9.62303 6.22548 4.03821 10.0119 3.19029 3.59333 10.2375 3.55287 6.9275 
9.42277 -0.64243 9.94298 8.98929 -0.276704 6.32894 9.44291 -0.242573 3.69295 
10.4524 -0.0856279 0.563439 10.2315 4.20408 8.82921 9.98772 5.3129 9.7487 
9.76397 7.01321 8.96294 9.72885 7.24479 7.22001 10.3435 8.74788 7.93236 
10.5305 9.93444 8.38447 10.037 9.59489 8.5504 10.2812 10.3905 6.48308 
10.1842 4.28091 1.2078 10.2813 5.34984 -0.0326882 9.82441 7.02428 3.00529 
9.33952 6.62184 1.28636 9.49002 8.52831 2.3601 9.03801 9.49649 4.05532 
9.33284 9.38025 2.52796 9.8619 8.71922 1.86209 10.0532 7.84252 3.59671 
9.3056 7.22048 3.91583 10.7294 6.03996 3.69173 10.5574 6.93207 7.0351 
10.5234 5.99482 6.17271 10.495 4.39943 3.10362 9.29546 3.13926 2.22502 
9.65714 1.57767 1.01066 9.68052 1.34134 2.14562 9.71548 1.54859 4.21313 
8.60323 4.18668 7.43389 10.1425 2.98269 7.77245 10.8842 1.56315 6.38751 
9.29168 1.34889 7.31281 10.1798 1.51197 8.87328 10.7556 3.41069 4.69375 
9.04205 4.95991 5.75764 9.77015 4.72085 4.20952 9.9241 -0.0195516 8.62167 
9.70373 0.0261938 7.18216 10.0163 -0.247675 5.82999 9.71302 -0.212654 4.3533 
9.97497 0.228155 2.75175 10.5946 -0.0379589 1.24287 10.3507 3.78735 9.46387 
10.3471 4.38373 9.87969 10.7009 5.07789 9.29076 10.4028 5.22481 8.45807 
10.2172 5.84509 8.77289 9.53444 6.06103 8.29674 8.47633 6.02155 7.56971 
9.5347 7.04846 7.74329 10.2399 7.65515 9.32241 10.0024 7.3802 8.33428 
10.1135 7.96757 8.53006 9.84384 8.1004 7.7578 8.87746 8.0223 6.42279 
10.7206 7.56906 6.23915 10.1501 8.77306 9.12295 10.4251 9.67437 9.4012 
10.0765 8.40415 7.8291 8.78308 9.8181 6.58081 9.00803 7.7127 6.32046 
10.4311 11.1935 7.65361 11.0463 9.31287 7.6661 9.92161 9.35152 8.40202 
10.7361 7.08022 9.63673 10.3786 6.37058 9.24561 9.93622 3.66138 0.0714206 
[...]
CELL_DATA 2484
SCALARS scalars double
LOOKUP_TABLE default
-1.680045753 1.129952787 4.7085781567 1.4136323383 -2.0101749956 -0.20640605355 5.9925422207 4.387006306 3.2350909217 
0.13883105185 2.6711208479 -8.1103341871 -1.5020815955 6.2568165556 6.2307388904 6.5609409729 0.61205356109 -4.629989226 
2.2445697045 2.3375391469 6.6166203913 -2.1035520355 2.2557081104 4.5661467956 1.9531615447 -0.5465422608 0.73846074789 
-2.9590168117 -6.2000955956 1.7147411992 6.8485183796 4.9130748737 -1.4636532905 -9.7676306885 2.7180280512 -2.2019801372 
-1.8499795724 2.6498617018 -3.922543628 5.3743699918 -2.5534384314 -0.235577971 6.2810705165 4.2896646203 -3.6321548486 
8.1352377621 -4.9760706238 8.6615488906 6.2043328389 -3.6724119925 -4.9231566659 -8.017777902 4.0437605932 -7.3261752029 
8.6773189989 -9.8304584613 -1.3808336926 1.8063650735 9.8937745893 8.6084558942 0.8648059273 -6.5450860282 -9.4089971917 
-9.647509143 -5.5566995677 -8.8303217122 -8.6053979808 9.5378485696 -1.0601621669 -2.8711175405 8.6981559937 -2.5992460566 
-6.1200251402 2.6591321751 -6.3438916801 -4.5572730441 1.5149163599 0.38514315408 -4.5718756613 -3.1047663416 -0.73164504045 
-2.7071619625 2.1053672913 5.3397307288 -3.573572743 3.419286545 -1.178775883 3.1550964148 -4.4647353069 8.5293469521 
2.0526402234 -6.8553736157 -7.5564504361 -2.2702489307 2.9005150678 -6.1715983768 8.3473237789 -4.4938752082 -5.5860673531 
-7.1853667087 -0.88367886021 -1.9298884641 -2.0889665378 -0.5576613704 -1.8414698204 -3.3276474977 -7.1224514597 4.6220672246 
0.85273069797 1.1588558631 -4.5709442083 -2.299509695 -7.5612789872 6.866357825 6.7186088228 6.9719150588 1.4296753923 
6.1112080425 -1.0306189438 4.1455092808 6.9487350449 0.15823309607 -2.4060588205 -0.87757310461 2.1042607041 -7.6684935523 
-7.1228664422 -9.257342753 -8.8748450081 -5.337184826 -5.0301680841 -9.9273940389 -9.543938865 0.13597786113 -1.0033654103 
-9.7475283028 -7.2605634988 7.9381601051 8.058408007 0.010269901423 0.50071335036 -8.8498945589 -6.7517665545 0.64647996581 
8.832796028 3.8602341678 -8.1446851534 4.4832522449 -2.7495867002 -8.6009638607 5.7614354878 -7.674014633 8.6034530897 
-9.7534445866 6.0821756067 1.9481946599 -4.0301961729 -3.8923133246 -3.8506801848 6.3078432832 3.8118599214 5.8405701687 
7.7536887841 -4.0376465669 4.4840679158 0.23139817722 -0.3705688869 -7.8688631633 -2.4358838727 -8.3087757922 -9.2096795691 
-2.9038324903 -1.3636424057 -0.13241360954 -7.5940111771 5.789242867 9.1227158707 7.3044101701 3.7270651653 -7.2509085537 
-9.940661326 -7.6891177308 6.6232016749 -9.0480385297 5.7238824454 -7.2895811659 3.7762371161 3.8998764951 8.5259106498 
3.9616129871 7.0324411528 -8.4834519364 7.4096771172 -6.8338531194 8.7378433459 -7.3538101798 3.8755820342 6.1887135709 
-1.6094514097 -4.8010804227 -1.7208393285 -2.0555791163 7.3758051204 6.7687074061 5.3824610358 -9.570727841 -1.0947332945 
-6.2400617252 1.16460578 4.5395289937 2.3011498553 1.262555719 1.7158903824 6.6044066579 -7.8876068529 -2.2392811526 
-9.2064209933 2.0262591559 2.8756220979 -3.5183582961 -5.6207587481 -0.79186212745 0.94048515831 -3.36633976 9.440272452 
2.5739058967 -0.055718084596 8.56751529 -7.9331291879 7.1491233019 -0.11178533902 2.2094841927 3.2044235516 5.5066590189 
7.4417214782 -5.2401715788 5.865295367 -0.12053972495 -6.6532540825 8.8862931039 8.4330671936 9.9101135448 5.9116476971 
-6.3046380433 -1.853782751 -6.7537357824 -8.1505268562 -6.7386252543 7.8923331639 -6.5836286655 -1.1247220179 3.6845167311 
2.1274669716 1.94733705 0.083739957285 -4.5835413302 9.0029672778 5.5704805994 -1.0298023562 2.7077450325 2.5018568359 
2.085016767 -0.10813069853 4.2781556266 3.969518149 4.2621265918 -2.8401733354 0.40771728327 -1.5491186448 -0.32007314069 
1.0583516136 -2.9445935133 -0.59609427983 -4.0277937771 2.2502511166 -0.9717595497 0.35796239346 1.1644516167 1.9937744651 
5.7839739685 -0.050964808143 0.87984599085 1.2222460938 -2.3899336786 7.82660174 2.5508135609 -1.5809003116 2.8879676779 
1.3596968171 -0.099483465855 9.7737332721 -2.9679120161 -8.0921537238 -8.9674851228 6.7584653687 2.0467413691 3.9966437153 
2.1669475038 1.3566437908 -1.6423685109 -6.3470039924 -7.5150769765 3.8497661365 3.6077163815 3.7415180922 5.1627017108 
-2.8762482342 -4.5186765514 0.81805656391 -6.5559008178 4.8109997251 0.039256930951 2.8590281922 0.54335387146 -3.9092483127 
5.6492774027 3.4379905879 4.0057611288 2.8516955047 -3.1809959486 4.7858153511 5.3360045303 0.032598395506 -0.64926689057 
-7.3543082115 -1.4016131507 7.8317140619 0.96833830431 5.8588586036 1.2834650633 5.8763029358 -2.6559645264 4.5679243477 
0.083045604843 -3.6470950162 8.284352034 8.2663327202 8.7791602915 -5.6919892705 7.1930781216 6.355260743 8.9854882207 
-0.5481316168 2.0805298762 0.96931170079 2.0842306767 3.8349247648 -2.2303531847 -6.6495790552 -5.9556980814 -0.47532419548 
8.5475289498 4.1673381484 9.7524246691 -3.3290226706 -2.8858739358 -3.6156035272 -3.4533630286 4.9689155762 4.0839559778 
-7.7455745494 6.1021316008 4.2180330985 -3.2033566299 -0.75667847256 -4.845927461 4.5464212177 4.5774846143 6.1674558928 
-5.6221935131 0.79712655079 -4.98104873 7.6814430959 -2.6929834248 -8.7237585082 6.851755324 -0.16127662674 1.4024410787 
7.7892253145 -5.1122620567 -7.5625894618 -6.5746510547 -3.1929090601 -2.837190619 5.1603761321 0.18323969768 5.7943433258 
0.28613622849 9.7809463895 9.3681637514 2.0247632096 -1.4311286274 -5.9036064658 -9.0963319884 -1.4201941347 -4.0260703205 
0.52096145877 -9.9128798578 7.5805163548 -4.0655996586 -4.2097711337 2.2827708213 1.167200961 6.9672851285 -8.1148313144 
-1.1157315645 7.9736156741 9.9138789385 4.4292440919 9.208508173 -8.223932959 -4.933041885 -4.8263313505 -0.10341861624 
-5.2520093851 1.377162134 7.002652344 6.9877811991 -5.274417176 -0.6586796576 8.3496673313 -6.229548877 -5.9942550074 
-0.44789634978 -1.4693301662 -3.4780146868 -3.2425467458 -1.9406785645 -1.0467440773 3.2947920275 7.5296374883 7.5955055609 
-4.1726610949 7.3225325892 3.2964500739 -1.9754631933 -1.9222121049 -6.4459224914 -8.4128716395 0.92829092664 6.1927170549 
2.7058526214 -2.8223166131 6.7737718678 3.3941540736 3.9108538194 -4.6590304849 2.2274983639 8.0294813221 -2.8953721618 
8.5155956924 -1.0487355917 -7.168109589 -4.1609898948 -5.8337015596 -0.82002376589 -2.149939252 -1.1689941666 2.580689214 
-5.9882561227 -0.83578017838 -9.5397886043 -3.5739004052 -2.7668992662 -7.0677802957 -2.3441460699 5.3909683065 -2.9816789003 
6.771641943 -3.3030943682 -4.2682507212 -4.1373891328 -2.4231090278 7.7948380166 4.1194894865 1.1077391127 -1.5868965412 
1.9851174988 2.3827865091 8.8319580721 7.7760936823 7.7541937659 4.2819714078 -1.2191519286 -5.1675409878 3.342736969 
-5.527009109 5.6314523193 -5.7188487432 1.644204208 1.584166245 1.1456844946 -2.6640585486 -4.3751796059 -2.2606945209 
1.82956409 1.2384537065 0.39996119079 -5.3365972158 3.2247795554 9.1026162664 -3.283348833 4.220447232 0.043170259735 
-4.6785746872 -2.7229168203 1.7058915707 6.1054942611 3.6468224803 -6.1966987562 -2.3568365229 7.894475312 -0.59272308961 
-5.3315656651 7.1100274787 -1.1998439921 7.8299862529 6.7098998895 -0.73693384119 -3.521329623 0.19819398778 5.6096478046 
5.8988374928 -3.1929657792 6.7015688643 1.1910176222 -2.1725843545 0.3371302626 -0.85239691319 -8.3589535484 -3.4897876562 
4.0290576002 -0.1422999875 3.4593482427 0.14231809355 -3.4123702679 3.0857677511 -4.9879009496 5.5087948641 8.3123411791 
6.6306048996 8.2361256084 2.5771476391 5.0759003216 8.3775936946 3.332225451 -8.9665553274 1.5636336145 9.8071029322 
-9.8115557137 -3.1776113276 7.6908807535 -7.4602560454 6.9875493279 6.1308676952 -6.7771472708 6.7339957841 2.3263724356 
2.5918019061 0.46846269369 5.1052828 -6.7403621247 8.3234187524 6.3929235329 -6.9220063039 -2.5195479601 0.93065042344 
4.3589681086 2.429161139 3.7410879879 -5.5650025563 -1.4735737188 9.3811839259 -1.2919118289 -0.65513391954 -3.2245539104 
3.5335583168 1.9150885143 -2.7897404241 -4.6086512409 -2.0446983452 -1.355929588 9.519110499 5.4591779676 0.14095300465 
5.5092223204 -4.8848704015 7.528833821 -5.8213145906 -0.5799063297 2.6378432264 0.46873047009 5.2769776609 3.8256286928 
-4.0268797767 0.092111929676 3.7640206869 -6.5011252207 -3.4522393916 -1.7186753267 1.0546706311 9.0222919391 8.1744779965 
8.6891427047 0.096525370923 7.1001499628 -5.9829579183 7.2190629241 9.9400288791 1.0576359074 -0.23375086748 -2.9256201016 
3.0621130856 5.1722855759 6.25424937 -3.6942032119 -4.2387698814 3.2202302948 8.2823741235 5.1592369063 -3.5645602616 
8.9223915514 9.6918536746 9.3502554147 9.0813037007 -0.019411878402 -1.595162589 0.96264004339 -0.25761804333 9.7686990104 
5.4344309935 -4.0213264896 -0.54262197324 3.1126034419 6.1009671757 6.2626796124 -4.8554770426 8.9739516553 -6.305675572 
-8.8727621849 -6.1426783565 -4.9215194625 -8.2986692538 1.2882125753 -2.1522939132 -6.840286274 1.9646057067 3.2843563016 
-3.794555135 6.4803580655 0.20054689892 -0.21479655343 -7.764105925 -8.7983062339 7.9765701871 8.2352669664 -9.0911932674 
-0.5116327724 -3.7342364923 -1.175756931 7.6255811142 -0.061290416936 -1.1800025629 2.0049972427 6.2740244289 1.8360261129 
4.2482271394 3.8301240578 4.5332451338 1.872070068 8.2905826873 1.263841761 1.9865097818 3.283680984 -2.6903655673 
-2.8844304502 -3.5338461317 6.2545535204 -0.69524398336 4.3562760713 1.606968687 -5.0354987622 2.8893290394 -0.62848956991 
-4.1871580305 7.7027948627 5.3954815836 7.194594543 5.7798467339 3.5427935541 5.204008789 -1.1405026824 -0.72178770798 
-4.8701845601 8.3301005852 -9.6446320771 -1.9983493692 -5.047237606 -1.3893264061 -4.3807479899 8.1787287943 -2.1282171498 
4.4727334228 -7.565231979 1.9344468418 -4.4068828275 -2.0452617853 -1.8616857429 3.0875912208 -5.7710813209 -1.6203700177 
-0.49845298388 0.025881589203 2.5007008203 5.8804861788 2.6728769018 -4.5109161768 0.028646673308 9.8298673213 8.4586441189 
-5.734667463 3.7362482539 3.1436623245 3.2772365448 -7.1134254822 -3.0626816177 -2.0503314421 -0.73034894717 4.2507323541 
-0.07699603704 4.3421580926 2.2049038421 -3.3600113199 -5.0440835417 -4.248718172 -2.5116993657 6.0004259656 -3.1670867163 
0.60406780468 -3.7951582558 -3.2053453814 2.1577359484 -4.4785677708 0.84091965217 -5.4932848768 -1.2442184492 4.7809486625 
-0.22209653286 1.8982835776 -4.368936359 3.2867115857 2.0296629881 -1.2264399216 -6.5994013906 -4.1899082648 -4.9427349681 
0.46258355197 0.76168558115 -5.9482944592 -7.1296642649 -4.6748567918 0.99146886952 -0.71882466148 0.42147106214 0.39347093222 
-3.0635997376 -4.215828647 -5.30538035 7.4810975701 -1.2512759669 5.941339941 9.9975309752 4.6160772634 -4.6202774252 
-6.4651289724 -5.4761767242 -4.9135288492 4.6863823898 -0.97918922268 3.4163127047 -6.772932504 1.3607363971 2.0657299438 
6.7537289617 -7.6545552068 1.9600646134 -2.3990418804 0.83288297924 -9.85582532 1.1635085584 -3.7576425983 -3.0781437775 
0.90370003713 -3.7292473255 -2.2854695354 -3.0669564682 4.5127827478 1.4611569787 -5.6483156571 -0.73855194453 -9.725219423 
-6.3417472915 -2.7971791315 9.2536029944 7.4533766141 -5.2628384094 -3.1010792546 -4.4525510514 -3.882258717 3.4391593242 
-9.2192921446 -5.240507109 6.3307097416 -7.4199729964 1.3333288088 2.0601487435 -0.95996874928 2.8837744664 7.567650367 
5.638013077 4.6981635762 -5.2233857661 -6.8786364467 -5.4135698986 9.6949245686 4.9109954495 -4.2470636922 -3.8128512304 
-6.5049737418 -1.8798193628 -6.3720597916 -6.3042538965 -1.7465416963 -1.2874144067 0.34451885158 -4.4661297096 -0.3383949155 
-9.2770874841 -4.096056608 -8.7166646456 -6.3312319038 3.1541438048 1.5900454812 -7.5776477717 -8.1789251408 1.6177957515 
1.4998571564 -6.6726675592 -7.8550855117 -7.8250831197 -3.4900984693 -5.8048192937 -1.2012134503 -9.1108934362 -9.0885562251 
7.9157936297 -5.3895132427 -3.6641302877 -0.8496591341 -5.8078480233 -5.5498867709 8.3869485212 -4.8444391443 -8.3535922576 
1.7189950471 -9.0827947384 -1.2715840725 -6.41423497 -6.6290118478 -6.0865122939 -9.4404374478 -9.2128797633 -1.581377642 
-1.7334268631 -2.054284695 -1.8466430203 -2.8003802317 -4.2220500245 -5.9801648051 2.8903223313 -8.9249856361 -1.2452431135 
-1.6765026196 -7.6871104329 -4.1663057098 -3.0910254319 -7.0277485343 -4.477966996 -8.7177577386 -6.9891819875 -7.047202608 
-7.821043756 -8.3540166338 -8.9115107031 -8.9144946701 -6.8887947501 -5.0923575147 -4.5685119374 -6.5728352635 -2.8075892595 
-6.6986056375 -5.1858801848 -1.461918822 -8.6499838203 -5.7391681082 -5.9975461266 -6.910579859 -4.2403064082 -7.7578831338 
-4.3199612076 -6.8350260096 -8.7731627237 -9.9486718597 -9.1422607252 0.85023579747 -8.2160092387 -6.2204099668 -1.8029407227 
-9.099323422 -9.817664358 -9.3992036473 -9.8201307708 -8.1386331797 -9.3332550481 -5.7796928789 -8.5473538844 -2.5324771895 
-9.0965004309 -9.6085285562 -7.4715986027 -9.6953423741 -8.8955407348 -6.4781445933 -6.2101433071 -8.4821077752 -9.8745671947 
-5.2536254151 -7.7451544801 -5.2553800928 -5.2452240742 -7.6078968047 -5.290121285 -9.4372459541 -8.9055983417 -9.2087002701 
-7.5179717919 -7.3886097069 -8.6372977092 -7.1065944997 -4.780492875 -7.4969615285 -7.2897161785 0.1196532324 -9.6365188099 
-3.9330324514 -0.60347004205 -2.3724730317 -4.3865893958 -5.4923842436 1.2620190058 -8.521189331 -7.1550989684 -8.4687757836 
-8.239244415 -9.9943896277 -8.9200681029 -7.8623552462 -8.7078405985 -8.6418997575 -9.6036038284 -7.6469054531 -7.3867415562 
-5.8167421336 -8.6630643957 -4.5391325568 -9.3089150872 -7.277770147 -6.6153904897 -5.4670455846 -6.5284785599 -9.5971491412 
-7.5324328085 0.84339195679 -1.3421962856 -1.1911988359 -2.7446255697 -9.1856507824 -6.0393295727 -8.7986425627 -5.1391171067 
-6.789569787 -4.5172721127 1.9581976942 -8.9105247387 -9.1070101705 -7.1956021453 -7.6055203156 -7.6786635241 -8.251471238 
-5.0529449619 2.8059619093 -0.33792432352 -8.7976797133 -1.0958469524 -6.5879096057 -0.14830809176 -0.48537626771 -8.8401885105 
-8.1164963451 -9.1518739606 5.5490039281 -8.9026615607 -6.248133635 -9.9772684064 -6.2267773483 -8.1817325307 6.8762083411 
3.4364218542 -0.91772062265 -0.28790596953 -3.0033904821 1.712972656 -8.6398696732 -6.3705134012 -9.1065883298 -7.9199031214 
-8.2986244957 -1.50913903 -3.1985569937 -0.51264924137 -3.7714067833 -9.0259391826 -5.9115057504 -2.2454525236 -0.65986110426 
-0.81406911425 -0.53914970856 -0.80083799107 -4.4398623147 -1.0360986899 -8.6996298337 -9.6938174316 -2.250223646 3.5986652328 
-0.98807134495 4.3103104097 -2.891870243 -7.8483910167 -9.8147988717 -9.7162238988 -7.0629954627 -5.7474918387 -7.6501430118 
-5.936496538 -1.7044251847 -9.0333957613 -6.4406412602 -0.27569901794 -9.9105731399 -5.2111014714 -6.8382784905 -4.5693891121 
-5.5583147278 -9.0455762678 -9.4921745953 -8.8500627662 -9.3196258711 -9.1874449244 -9.5803626447 -7.6538427594 -6.3771070413 
-3.4227962522 -3.919877767 -3.911581324 -7.7520214036 -8.7749783627 -6.0693966502 -5.5792683605 -9.210458794 -6.9796673386 
-6.18926747 -7.993943039 -8.2527113632 -4.8920347811 6.3401587784 -4.9406422167 -4.8247128575 -0.44855447805 -6.0805079839 
-6.2306325242 4.9691686379 -7.4816011238 4.6295113171 -6.7278687249 -9.4814518048 5.5464674712 2.8929727936 3.0688877336 
-3.2218982875 -4.1682645622 -4.4629601224 3.3604012599 -6.6562299575 3.2622807124 -1.4076580692 -2.8065054296 -3.393208733 
-5.5153067991 -9.5578764986 -1.3791941115 -8.8099997878 -9.1389088578 -8.9033744462 -8.8864247688 -9.3558137053 -5.2303117016 
-3.0782939125 -5.3672571004 0.41309951196 -2.7484224005 -7.033992332 -4.7289291136 -7.0833497168 -7.1600663369 -4.1841857794 
-7.2769282833 5.4413670178 -7.5577240628 -4.3648165955 3.7762231313 -8.3626835573 -7.4223395275 9.5410716545 -8.0990438159 
-5.5865080427 -5.1807236454 -8.9230073493 -5.5352579447 -8.1716295466 4.6801049445 1.7683443401 1.9935202082 1.8301799927 
-1.9542536639 -1.8492393457 -4.9140597241 -1.4535055598 -9.8585438437 -8.1220869043 -9.7949355054 -2.5348194674 -6.1106462844 
-7.570838594 -5.3230844335 -9.2785393716 -7.2757183261 -4.1020280117 -8.8411502358 -4.6416043651 -8.4876466564 -3.1590571361 
-0.60811280012 -8.2232825082 -9.7495711281 6.3533567506 -8.7051329208 -9.3110307981 -8.5514127591 4.2980616434 4.2357973188 
-2.9506201706 -4.4719194496 -2.4083729233 -1.622933567 -9.479409049 -0.83445190652 -7.2736642373 -5.0286985303 3.9750999255 
-8.2731606802 -9.5400498345 -7.1853862822 -9.0223724514 -6.2101359599 -0.5611172922 -4.3908199334 -7.9975320006 -7.3539621515 
3.7136021803 -7.5624029551 -9.1987528556 -9.9068702245 -9.7226914218 -9.7765613722 -0.24543511273 -7.0185211963 -9.331053593 
-9.0125391472 -2.966460855 -5.4629808103 -5.162533258 -3.473110547 -8.0500001356 -7.7634820961 -8.4734452098 -7.6797142277 
-5.1413360021 -7.682852291 -8.6321744752 -5.0785442124 8.7927999843 -7.6273459658 -9.4009245571 8.974962282 -5.2759886433 
-5.0287349358 1.1283630347 -5.3144444556 2.6550445948 -8.0115384373 -9.9112353896 8.1211370459 -9.5206946947 -7.3653552657 
-7.72611519 -8.6600095956 -2.4390405247 1.7238806896 -8.677110396 -0.63935300397 -5.0392691501 -5.9563089112 -6.5510342728 
-5.056527555 -9.3525356601 -6.0739529033 -0.50697143948 -6.3327423335 -7.8861497046 -7.2557331232 -6.2544332275 0.2392708764 
-8.8433119721 9.4032328163 8.8958739033 8.7884369163 -4.7071435335 -3.9619196158 5.1036941078 -6.7269404376 -4.0906411857 
-4.1133605988 1.6004791738 -0.62931731044 -0.087342099611 -7.9065931834 -7.4652803197 -8.1391482009 0.085587438755 3.3344184999 
0.67703906398 7.5175927004 -7.1869672396 -1.0095932497 4.2370016253 5.0964617512 -8.7920833925 4.8654822721 8.6684134622 
3.7515248926 8.9724853639 8.6465167759 6.0976093113 1.5732787641 8.9226143962 0.69008618647 8.936243161 9.5539364515 
8.2727679848 9.3209656772 7.2801025722 8.2621475845 7.1569254865 8.5065044867 8.4588107656 8.0190866359 7.1806759964 
7.4472551012 5.4198812683 7.1475893778 8.1840671356 7.0710082676 7.3832004581 6.8562868955 8.9780024697 2.825877383 
8.9455916243 6.485290383 4.8515376646 3.3432188269 -4.0370801246 7.5662292972 -2.9627168916 9.4625554214 8.7116430153 
8.9943398809 9.8113071214 8.3066242869 0.21412672524 -7.1609074089 1.8820878056 7.1850608437 0.17161066161 5.4716613128 
8.0408500294 7.311291317 5.7415974865 8.2079985904 8.7877045478 6.7641583442 4.6828560669 6.5586689466 8.657292454 
4.5800823972 8.9752189144 7.533677834 7.0763271334 9.835374805 8.8144774228 8.0054512015 9.5183212752 1.6434401531 
4.1666818809 8.5685316035 9.5036898431 2.9242605888 7.0419185557 7.76694299 6.5415945946 5.2024496234 6.5780181915 
8.6154480553 8.3779647741 9.1815567557 9.1182507333 6.382675763 9.3001020548 8.9407379872 7.3679879783 6.5303652216 
8.3750981961 8.4501118906 5.1331199643 7.7697049091 9.7373235395 7.2517670725 1.9115974447 3.5144979736 7.3876380638 
8.7214086856 9.5910644611 9.1946805789 6.3750522963 4.8133312986 8.4584935626 9.1948785876 9.5403166996 8.2272013981 
9.3340632621 9.4261500528 8.6155767271 4.9461593889 7.2774475125 8.6445697767 8.9948351471 9.9444518022 9.2297659896 
8.8538743037 8.0268626191 -8.145049893 -9.4195089103 7.6313411792 7.2733455591 7.6231170431 6.8676338792 9.2486456242 
5.3222778101 9.2285390063 9.9815342368 9.6259143512 7.6529372214 9.6815860101 5.168107975 7.402020508 8.0678877762 
7.5292804309 8.4700550946 8.6938266694 8.64341018 8.9980180873 7.4343983441 8.1243449779 7.101952238 8.7966335758 
8.0493240802 7.566617812 6.6088086788 8.2453793499 7.9143339194 9.735926367 8.7779527133 9.6453629 7.7401352281 
8.2902855991 9.1639529602 8.2604923881 8.9304645971 8.8921055788 7.3392421771 9.1101573115 9.6502141511 9.975988328 
8.3798850248 9.9334715205 9.7888178339 9.7329382016 8.1900773804 9.7497118506 9.9097244743 9.7017235628 8.6490558922 
9.9804053053 4.8708052825 5.4464473543 -9.1739733277 2.5965242339 8.1392778513 6.1557322107 9.8125445352 8.2938680712 
7.2890953135 8.5365579211 8.378947401 8.8094930968 0.017530373349 5.8238002424 3.3541151351 4.1926298347 9.992393381 
3.4627820872 -3.6545012438 8.2070128483 5.2831378016 9.6055005055 2.9159732196 6.3095645454 8.9142212488 9.9914486118 