# vtk DataFile Version 5.1
vtk output
ASCII
DATASET POLYDATA
POINTS 1244 float
-0.321828 -0.895839 -0.688957 -1.18503 -1.51338 11.7919 -1.41835 10.7904 -1.02724 
0.48772 10.4428 10.6265 11.2516 -0.884932 -0.656921 9.88507 0.678939 10.693 
9.70902 9.28832 0.245635 10.8673 11.3731 11.3923 -0.666264 -0.547209 0.559227 
-1.1227 -1.25834 1.55766 -0.836818 -1.0459 3.03637 -0.56824 -1.38028 4.00648 
-0.70662 -1.91223 5.0798 -0.900996 -1.34527 6.33231 -0.80412 -0.954704 7.53346 
-0.926101 -1.27833 8.99016 -1.16684 -1.95285 9.80379 -1.03667 0.474879 -1.13881 
-0.641459 1.58929 -0.392433 -1.06837 2.66342 -0.8701 -0.6404 3.80114 -1.0695 
-1.68688 5.1761 -0.825756 0.0158812 5.50096 -1.71164 -0.715649 6.77704 -0.912715 
-1.7705 7.77803 -1.23349 -1.69255 9.59786 -1.13527 -0.136744 12.1072 -0.194106 
-1.63923 11.1376 1.11543 -2.65468 10.8447 2.34877 -1.97013 9.86461 3.65264 
-2.61331 9.74173 4.96232 -2.30328 10.2192 6.20157 -1.44235 11.1933 7.42634 
-1.01745 11.8907 8.85082 -2.23047 11.3825 10.0875 -1.0814 0.279794 10.885 
-1.9186 1.40266 10.5498 -1.2569 2.78037 10.5355 -1.41256 4.33391 10.64 
-1.35657 4.95599 10.8237 -0.872401 6.39105 10.7937 -1.42206 7.36337 11.8147 
-2.42964 8.55248 11.0829 -1.43584 9.56437 11.7781 10.946 -0.992219 0.942344 
11.5587 -1.54245 2.22665 9.77004 -1.13565 2.13642 8.88361 -2.35012 3.4933 
10.0081 -2.1123 4.50984 9.67639 -1.56099 5.94025 9.92451 -0.655039 6.82154 
10.8358 -2.42603 8.64207 11.9932 -1.3883 9.47711 10.8062 0.5049 -0.867664 
10.6211 1.74426 -1.28672 11.0346 2.88632 -1.33005 10.575 3.67543 -0.908161 
9.84152 4.54499 -1.55769 10.2287 5.32555 -0.814563 10.4612 6.67794 -0.599817 
11.4956 8.45705 -1.04229 12.1937 9.81951 -1.44211 11.9542 10.8124 -0.620329 
9.24659 9.93418 1.07462 8.19576 8.29877 2.35454 8.11798 7.82976 3.91126 
10.7265 7.23692 5.48145 7.75775 8.25811 5.25298 7.89083 7.69773 7.43077 
8.64215 9.77223 8.04635 11.4083 11.9326 9.74016 11.759 1.2581 11.3138 
10.9702 2.35871 10.8077 10.18 3.02951 10.3946 10.7567 3.81189 10.8813 
11.1917 5.1146 11.0784 10.7208 5.97276 10.7701 10.0295 6.97019 10.0404 
10.9726 8.23672 10.9252 10.5718 9.70048 10.9885 0.888217 -1.58375 -1.4133 
2.01175 -1.59955 -2.0259 3.23925 1.55958 0.435555 4.54035 -1.80845 -1.70106 
5.12013 -1.42609 -0.562076 5.94363 -1.3127 -1.79888 6.99797 -0.971597 -1.02766 
8.26185 -1.56486 -1.13848 9.61149 -1.33697 -0.766876 0.744265 0.580233 11.4613 
0.720866 -0.96082 11.3134 2.92899 -0.389977 11.1996 4.97048 -0.33664 10.951 
5.52703 -2.1823 12.1465 4.62856 -1.2999 9.80795 6.42564 -1.96347 10.0749 
8.10574 -1.43282 11.3203 9.28796 -1.63097 11.7732 -0.272753 11.4416 -1.25153 
1.30086 11.0902 -1.79288 2.75267 10.418 -1.5588 4.04036 10.1679 -2.77057 
4.94453 11.2347 -1.91371 6.01681 9.86049 -2.09578 7.5522 10.5535 -2.41916 
9.31246 10.623 -1.2647 10.1521 12.0485 -1.58603 0.847238 11.2039 11.6505 
1.95442 11.1283 11.1052 3.74133 10.719 10.7844 4.72234 8.75297 10.9865 
5.28622 10.7215 12.24 5.38473 8.82388 11.8193 7.09715 9.20329 9.63769 
7.96323 11.6812 10.1504 9.21206 11.3836 11.3146 -0.705186 -0.108486 4.95037 
-0.955982 -0.117949 1.72389 -0.33421 5.70593 0.999707 -0.237581 8.90669 3.53251 
-0.650368 8.5681 0.0177882 1.16749 5.8499 7.31296 -0.79266 8.8313 10.0267 
-0.349795 9.15339 6.36315 -0.722548 -0.631424 8.11511 -0.814693 2.96361 10.077 
-0.742622 2.95363 0.0791225 0.72956 6.10905 6.3331 1.16556 3.27192 4.27591 
0.480212 2.69647 6.17945 -0.942167 -0.221209 9.7696 -0.922744 -0.318219 6.45339 
-1.38865 -0.481442 3.45848 -1.11253 -0.0885399 -0.137454 -0.374558 4.39571 8.97046 
-0.577889 5.78638 9.82985 0.029905 6.73109 9.52055 1.60898 5.47927 7.08351 
0.140516 8.14657 8.28861 -0.899643 9.9343 8.78761 -0.570771 10.4436 7.20047 
-1.01651 9.1949 5.52232 -0.245606 4.38581 1.16242 -0.544406 5.44549 -0.326824 
0.759607 6.90248 2.86591 0.0109858 7.09496 0.874293 0.491077 8.20574 1.71186 
-0.907594 10.0688 4.09335 -0.582421 10.5023 2.46246 -0.287212 10.2066 1.91534 
0.158329 7.46461 3.94931 -1.18274 6.63748 2.99288 -0.864972 4.41609 3.70739 
0.158834 7.60884 4.1187 -1.33347 6.0455 6.12108 0.437199 3.71139 2.5942 
0.121338 2.7834 1.59688 -0.761661 1.28183 0.941005 0.147037 1.71195 2.85203 
-1.95076 1.70647 4.21619 0.0924092 4.2607 7.28001 0.264531 2.80637 8.16898 
0.221143 1.41514 5.76581 0.0432017 1.11201 7.30859 -0.458036 1.45869 8.95298 
0.432083 3.33198 3.86071 -0.636072 4.12557 5.1387 -2.04978 3.61984 5.36287 
-0.717391 -0.0215455 8.9539 -0.999368 -0.40617 7.41115 -0.767738 -0.463232 5.69482 
-0.996956 -0.157398 4.4243 -0.916619 -0.422387 2.58676 -1.11709 -0.069202 0.809407 
-0.161717 3.62876 9.77517 -0.405368 4.61518 9.80244 -0.358783 5.13629 9.52731 
0.370193 4.80576 8.52703 0.142436 5.4053 8.75565 0.204458 5.98406 8.74097 
1.10693 6.56008 7.32939 0.207681 6.80397 8.53045 -0.541188 7.51126 9.5415 
0.025717 7.54191 8.80723 -0.402511 8.27048 9.09631 0.761095 7.02311 7.35263 
0.366067 7.65535 4.9142 0.463886 8.11383 6.95623 -0.263801 9.06526 9.39881 
-1.97787 9.44827 9.86944 0.53746 9.53184 7.05871 -0.874205 9.44579 6.78889 
-1.36403 10.4777 6.48886 -0.406643 10.5528 8.49707 0.316891 9.19021 7.88046 
0.261142 8.89316 8.00557 -1.1919 7.33481 10.2655 -0.818921 6.36386 10.2088 
-0.445181 3.99348 0.473344 -0.719421 4.41932 0.00376592 -0.587579 4.81131 1.66743 
-0.652454 5.09998 0.575477 -0.744755 5.70712 0.25889 0.185164 6.42157 2.44632 
-0.269328 6.42418 1.3724 0.290389 7.24644 1.82886 0.363117 7.66414 3.27186 
0.459744 7.7331 2.35721 0.554157 8.50696 2.69222 -0.0941089 7.67498 1.3854 
-0.605112 7.5329 -0.0433359 0.162327 8.39226 0.800598 0.687596 9.11319 3.92836 
0.517957 9.79249 3.09781 -0.653425 9.93551 3.14954 -0.188969 9.20925 -0.00684073 
-1.35877 10.0224 0.723181 -1.24589 9.7767 1.21703 0.959069 9.16754 1.04849 
0.59236 9.09821 2.09046 -0.58287 6.98767 -0.162258 -0.411803 6.41663 -0.012424 
-1.11462 9.05614 5.0156 -0.418392 9.09521 4.35265 0.682978 7.86996 4.77747 
-0.15103 8.4054 5.58032 -1.7313 8.59439 5.09011 -0.0814723 7.75943 4.99594 
0.631639 6.87179 4.26628 0.806888 5.55893 3.57137 0.308312 5.43832 2.01981 
-0.125069 5.71852 5.07467 1.64454 7.41188 4.91427 1.4395 5.80654 3.36244 
-0.248152 6.19773 6.43359 1.35783 7.59178 7.45015 -2.04514 5.24568 4.91571 
0.850748 6.05595 6.25845 -0.716273 6.81874 3.76075 -1.03819 7.69668 6.72739 
-0.368217 6.38122 7.04916 -1.52727 8.06864 5.528 0.381165 8.12574 6.29843 
0.0426865 6.13644 5.253 -0.403088 4.67068 2.76932 0.0748736 3.91033 1.92629 
-0.138798 3.80339 1.34271 -0.245217 2.94686 0.820792 0.793423 3.14315 2.26811 
1.043 3.67748 3.20096 1.23882 2.73829 2.67156 -0.56068 2.09432 0.611345 
-0.625054 1.32659 0.117083 -0.774028 0.549264 0.349693 -0.810675 0.590148 1.37749 
0.482817 2.22396 3.55546 -1.25323 2.84744 4.04396 -0.368847 1.32674 3.30881 
-0.630039 0.898996 2.46612 -0.796508 0.197204 3.11971 -1.10947 0.671334 3.82921 
-0.786852 0.94361 4.29846 -0.507882 1.43232 1.83038 0.261602 2.14755 2.09996 
-0.632858 2.30027 1.22865 0.277355 5.25592 6.82638 0.40049 4.53436 8.06217 
0.284714 3.54107 6.79459 0.114741 3.43259 7.91559 0.142783 3.09255 7.167 
0.289203 3.73411 8.76877 0.121092 2.76681 9.29532 0.159863 1.74087 6.32353 
0.761249 2.17081 6.82411 -0.229835 0.946884 6.51701 -0.170399 0.549306 5.37128 
-0.902337 0.580923 6.0852 -0.41441 0.334365 7.03927 -0.60402 0.69568 7.85309 
-0.548414 2.44268 9.34014 -0.658749 1.3949 9.72993 -0.356674 0.778033 8.67796 
-0.440352 0.547173 9.94388 0.0529469 1.39067 8.18878 0.174467 2.23729 8.57705 
0.210002 2.25856 7.64802 -0.573673 1.47852 4.61451 0.469752 2.32029 4.98167 
0.391264 2.67483 5.34415 -0.319107 2.35112 4.76151 -0.710348 4.04442 2.4552 
-0.485477 3.87306 6.55327 -0.657169 4.57339 6.21184 -1.09652 5.26571 6.95639 
-0.793047 5.30045 5.60276 -1.32495 4.62265 3.99295 -0.649133 4.95503 4.34418 
0.857415 4.86648 3.12398 0.881031 4.15023 5.85197 -1.21372 5.89747 5.01165 
-1.14883 6.04948 3.09825 0.111581 3.41191 3.19908 -0.879687 2.07399 4.4938 
0.842967 3.90194 5.66171 9.83426 -0.648302 4.93363 10.6397 -0.369556 1.87597 
10.1503 5.76706 1.70656 10.9498 8.80426 3.87906 10.1452 8.41214 -0.26535 
9.44885 5.87908 8.12261 10.4007 8.65148 9.94491 10.6252 10.0989 5.5064 
9.97413 -0.411938 7.8453 10.9694 3.06894 9.86531 10.2428 3.18757 -0.0952256 
9.64783 6.83884 3.77428 10.1261 3.01214 2.59921 9.60418 4.65974 6.68513 
10.1568 -0.773475 10.2598 8.93536 -0.556263 6.00145 9.17787 -0.574255 3.67675 
11.1981 0.0310982 0.588163 10.152 4.14367 8.88581 10.383 5.41484 9.93956 
9.95091 6.94124 8.90569 9.40401 7.41183 6.75452 10.8181 8.93601 7.83096 
10.4982 10.202 8.65384 10.0717 9.81685 8.37374 10.4672 10.6054 7.09206 
10.3343 4.27596 0.744259 10.2856 5.67435 -0.0970355 9.22177 6.82657 3.09464 
9.79117 7.07791 1.08832 9.06706 8.35091 2.08023 7.93003 10.0285 3.60556 
8.99691 9.23159 2.44788 10.0927 9.39244 1.29411 10.5539 7.48585 3.57243 
9.97592 7.40295 4.62667 10.2524 5.79538 4.03153 10.9758 6.81249 7.40426 
10.0861 5.25027 6.24974 10.2277 4.58673 2.64584 9.20791 2.62767 2.18641 
10.4521 1.39234 1.01929 9.22437 1.60232 2.35895 9.75147 1.22081 3.87066 
7.48529 4.71022 7.29536 10.6864 3.21434 7.69925 10.0024 1.6066 5.8509 
9.29505 1.61821 7.44408 10.0532 1.72514 9.19547 10.5905 2.90251 5.34269 
8.52314 5.16694 6.4748 10.2792 4.6397 4.91995 10.21 0.111854 8.57592 
9.48754 -0.366345 7.24238 9.67128 -0.398942 5.72632 9.55278 -0.513813 4.3119 
9.5201 0.406469 2.95758 10.8238 -0.0056148 1.07921 10.5186 3.65427 9.79864 
10.6118 4.4555 9.99385 10.7559 4.83125 9.32751 10.2471 5.11548 8.78249 
10.2398 5.81812 9.07141 9.76158 6.32926 8.0874 9.00255 6.30841 7.39594 
9.52088 6.88916 7.69917 10.1258 7.95638 9.51102 9.92105 7.62829 8.44376 
10.4151 8.20194 8.58888 10.3635 7.46789 7.76779 9.21298 8.34968 6.58201 
10.7609 8.11338 5.73208 10.2572 9.01518 9.31723 10.3917 9.62486 9.47074 
10.3751 7.69525 8.47239 7.78162 9.54989 6.71743 8.96458 7.02027 6.48719 
10.5754 11.7557 7.6374 10.9835 9.49999 7.03565 10.4523 9.55378 8.42636 
10.3615 7.29566 10.0335 10.7302 6.47508 9.3464 10.6959 3.50196 0.159319 
[...]
CELL_DATA 2484
SCALARS scalars double
LOOKUP_TABLE default
-5.6075966865 1.2785464468 1.743024048 1.2044012374 7.4759382269 -3.5448099407 -0.3175972187 0.029204562467 0.2890376793 
-3.6211905572 0.35296714601 -4.2952632189 -6.852240554 -4.267248882 0.10166286454 1.8062811349 -6.8900611306 -6.98990131 
-5.2103897478 -7.0702243103 1.3101266587 -2.4597755721 -0.053996746929 3.7265254105 -0.24600735934 -2.4042405615 1.2266103021 
-1.2968164447 4.7600309904 -0.24957560461 -0.78104576632 -0.95594235994 0.61105241464 2.669228129 0.15763058271 -2.5605376608 
-0.57971272351 -0.42246364937 2.4648655158 -1.4424967544 -4.8482159723 -0.43467023794 -2.7898374832 -2.1290840845 -4.8351832007 
-3.2875317597 -5.4899745978 -2.2844057695 -1.6846787905 -3.6811253525 -1.6882350816 -0.5913626185 4.5475064626 -6.9273508658 
7.6014350145 -9.7586400422 -1.3952892068 -0.12244057863 9.201516399 -8.5016254942 -6.8927016389 -3.7950235142 1.8714452646 
-7.1739472233 -6.1258928807 -7.9318832222 -7.1469003389 -1.2151362582 -6.6559542897 1.2826956664 -4.4301632001 -0.25587867377 
0.7109874026 0.67146762872 -6.6345853328 -0.73444538909 3.3742041509 2.9418607285 -0.62624837473 0.33041145316 -5.1583382993 
-1.2169845288 1.9182169096 -4.3284808071 -6.7718436488 4.5424450383 0.73996537229 0.24439981002 0.71952060253 2.7941668357 
-3.4503651762 -3.5423769303 -1.7370430228 -3.8196465688 -2.4521523457 3.7516986535 -1.8186913105 -6.1101515273 -3.9992911433 
-5.5139582864 5.2072679679 -2.5306650349 -1.3900168114 9.7657735803 -3.7664877012 8.9077029685 -2.1673532845 2.4139613906 
-1.1807002746 4.6002139352 4.8658986556 3.7920234598 -4.0431271139 -2.4159634869 1.0790684532 1.5965699233 -4.4939577504 
5.6999405369 -0.72550634039 4.9875484905 5.6890543124 -4.3141187608 -0.96720386444 -2.4224977186 6.6087004395 -8.5691288214 
-7.5956709396 -7.8035604015 -9.8207130029 -7.6355518394 -8.2765927162 -9.7844035701 -8.4625881406 3.8230717659 2.1147366415 
-8.6137405186 -5.9919075181 5.9113726777 5.7384511055 -2.2055444555 -1.9449096387 -8.2083599979 -9.3294515898 4.3856045196 
6.0239543428 4.091393691 -6.4829746716 0.98569052148 2.0903010493 -0.06191095258 2.3552083752 -5.9376619228 7.3447403925 
-9.4833762171 -1.4449596758 -1.7557526664 -6.4287518192 -3.04190485 4.3990362243 2.5300365283 -1.6987387683 4.508023369 
2.386188993 -1.2428232363 -6.090326299 -0.042235106753 -0.72229302791 -8.5923987869 -3.9209492456 -8.0565602111 -6.2122517485 
5.0972187819 3.9334530285 -5.3828771375 -7.1404804622 8.5959217377 -8.7052443265 8.0334289415 -3.3686230659 -6.9053259179 
-4.7197218391 -8.5019592818 -3.8955845331 -4.2091397225 7.4144125358 -5.1739999031 3.051421791 -3.0072178865 8.2446496265 
-2.5080469177 6.2565517983 -7.4296626263 3.5784830238 -5.8893964364 7.3663475923 -6.9230848753 -0.83484089895 1.7101249886 
0.41090164544 -6.3989698469 1.7090201316 6.1843731264 6.3919353869 7.4493424836 9.5185988908 -7.4264044349 3.8648744469 
-1.5375323281 -0.38245463141 1.3511199265 3.3504051492 -1.9708345115 0.47654197104 5.3482617981 -7.8187593118 -2.7272346737 
-8.725185694 2.3401866421 3.116694001 -0.057066101539 -8.8870394135 -2.0791278207 0.085356202981 -4.0635615214 7.88676091 
1.7002976687 1.3958482141 6.3120153436 -9.6931380486 3.93316758 4.0285421421 -5.988679044 -6.6623586089 -5.7959272646 
-0.75345782541 0.26295748639 -1.3143938476 -0.75509576425 -6.4758066713 -0.46266054667 -2.1935942757 -4.1843471301 -0.034476143287 
-6.0841731185 -0.61880420011 -5.3924039992 -1.9563404078 1.7901636725 -1.2128859628 0.47262948871 0.47092722317 4.7705704188 
2.8190167591 4.5588966489 1.4118534727 2.3748208455 5.7643110869 3.7678650618 2.3121833404 7.0282770249 1.5198796454 
3.7179694435 5.3610499453 2.2100024657 4.8705396439 2.0982899836 -6.0747327971 1.1692583767 2.1686023264 2.169342222 
3.616950304 -0.97853258344 3.7589801118 3.7251879135 2.4286521407 5.65932696 2.1496304463 3.0310610828 4.3120916851 
6.4237530714 3.9200511345 8.456068555 1.7087984612 6.4841192106 1.6754556588 3.8738072764 4.1142613778 0.46378897109 
6.5536104899 3.9205893958 7.4600794824 2.9011725888 6.6098333714 -1.3973955732 -1.5098721847 0.23165859849 -2.0970617105 
2.0122472818 -5.9497483097 1.0511770425 2.336841417 -0.67490653727 -1.3155341134 -4.5560932565 2.0256525659 2.3513192267 
3.3493960925 3.5828491088 6.0016455335 4.782370773 5.4007482366 5.4320283491 -0.55436670301 1.7676379021 5.6388936157 
6.1794020494 1.6039420642 4.4475965296 2.1923022392 4.4118956906 8.1365322208 6.0230782598 3.4960852035 0.091895029339 
-5.4994309427 -2.4617820627 -1.1267463496 3.3111246504 5.588489413 4.1566796774 5.6668817636 -3.0217566082 1.3870271335 
-0.043222658222 -3.3796493241 1.0345287223 7.2429945073 6.3503662325 2.1358216788 6.8788608231 0.67985511732 7.2714986428 
2.7824163048 -0.12503837605 -5.3721796721 -3.4960388116 1.3177629011 1.5489943482 3.5735230886 1.5732362133 2.8238978607 
1.094539132 -3.8672046282 0.41687556677 1.1650538929 3.2889810602 -1.313650113 0.099669272084 3.8385740464 7.5472608429 
-8.1422703621 8.0325608589 7.3053714956 -0.76548582254 5.9295473467 -0.82543924176 -5.8955374166 -4.8094405489 -2.0662304096 
4.1506739593 3.9932942414 -3.3401365041 4.1006604368 -1.4218429759 -2.7621484336 -3.7935040523 -2.7822813698 2.8094057276 
-4.7795187647 -1.4886220289 -7.0124173271 -3.4936379739 -7.1568949024 -0.63468158437 -0.64980088894 -1.4745926579 2.2037016451 
-0.18586985119 5.3645370105 7.2886022153 -3.0862652436 3.6244888508 8.0233587568 -1.5908596483 1.8845223458 -3.4206646264 
1.1622945012 -8.587325049 2.2755523597 -9.6390382338 -7.7538391981 8.017651194 0.054709568993 6.9228591745 -6.8730093405 
0.79458137886 -9.8206605411 3.1694317998 -6.4968151877 3.8819101212 -7.0522512512 -9.3842004903 1.4599065682 6.5009926807 
-0.49550663102 2.1496568182 4.7332946134 7.8652926743 0.87092056987 9.0276479166 4.7453992467 1.7333741826 0.42945799709 
6.5238360163 2.1311067601 -0.91096498624 -1.9021142022 -0.4899924004 -4.8370324264 5.8727085286 0.14287616889 -1.7865681473 
2.7838528129 0.83101440928 6.4257179427 0.94344987528 0.63940552933 -4.5301581346 -6.8365168335 -0.15174253034 5.7163585255 
-0.63580534375 -1.4294526743 4.7774002484 2.5810808329 2.4975482033 -5.903513604 -2.5318839697 7.0632537219 -5.3556266261 
-4.6869159894 1.6446138795 -5.0125876232 -2.1447073637 -0.69719411461 -4.4652952894 -6.1365340848 -6.6001615714 0.21187069674 
-2.9809358991 -1.3144389364 -8.8219699233 -2.6506229442 -7.1386780561 -1.7718999653 -7.39868587 0.39914592083 -2.1032249522 
2.5787255739 -1.8863498718 -4.1329850071 -3.8346610981 -1.4729842516 7.6620901602 0.8641235186 1.3036841823 -3.7844629094 
2.0653433057 1.3809860704 7.6591328937 6.0966312433 7.0431517189 -1.4400773687 -2.6462350966 -3.9532168876 0.84525745334 
-2.0860198321 2.4691987169 -1.1960526335 0.35742860239 2.5331493925 -0.012444419615 2.1292607401 -0.63235528205 0.0076836332232 
0.74464626239 -0.21229538923 0.51414640291 -6.8686852088 5.4071038922 -4.9688795678 -4.6225143979 -3.4070973016 2.6526663838 
-3.7114127871 3.2172480622 6.4500541909 3.7960200673 -0.87069609642 2.3248877653 1.9516379202 3.9725941011 0.71975245277 
2.5724062529 1.6694270343 -3.2375655443 1.6365842567 -5.9964868368 6.9972186335 -3.4938378021 6.0386663293 -7.5173380602 
2.9403324653 3.7836247158 4.7493525077 3.7711448553 -8.1193993393 -0.46682918745 2.2497970046 -1.3249390046 1.7387514511 
4.9024451341 2.925849281 4.2533001482 7.5588428006 1.9102769606 -6.7805956756 -1.9624156432 4.9023866361 5.5796962521 
5.2711723521 7.7877777113 0.76980266146 2.3409982304 9.4123022058 -1.6098836983 -9.9471378598 1.7965887868 9.8032938289 
-9.8178921002 -3.6628323018 7.9104425056 -7.7551323239 7.006470539 6.0710227429 -9.7419977921 6.2958918322 2.2801040269 
5.5135439073 3.6535605768 9.6979352788 -8.3660726168 -7.372206764 -7.9802517651 -5.6084736401 -2.5116920317 -2.2258341342 
3.5204077498 1.7046981964 -0.57710148974 -3.8540756325 -4.2534307231 4.0879059768 4.2399842153 -0.78216240058 0.57308138705 
5.9913516054 -7.3602522669 -2.1278268343 -0.011892496916 5.0637902984 -1.0322441935 9.5190015298 4.3464067584 1.2405042771 
5.282158867 -7.732921666 9.6253580988 -7.235159853 -4.3594365107 0.60745971647 -0.84063502795 6.8988641168 6.8458782508 
-8.2284122471 -3.3790846354 -4.7219915523 -8.6878952092 -2.9852354903 -3.3697030653 3.9675095505 4.6648474224 7.298680384 
5.6821383736 -4.9582558368 9.1896252822 -6.8266296354 9.6520889011 9.5087567201 -5.2992769158 5.6762281018 -4.6689564132 
4.6350822824 6.4829965595 -0.028471774685 -5.6657976329 -2.8416696714 2.6942201891 9.4986265994 -0.46883065958 -0.28623539708 
4.9035294018 6.5020719605 6.429797239 5.6187772388 1.9323997839 -5.1751241589 5.3562380892 5.9639174383 8.6506891705 
1.469374248 -0.082278570839 -2.8079421523 -0.568099755 6.3602167831 5.34149574 4.7140117615 8.4060126374 -7.1481752923 
-8.6705222303 -6.1545657255 -1.9800246779 -9.4040674295 0.53927411502 3.8662737541 -1.6474759407 -7.0164105993 -5.4577614148 
-1.7679450331 -8.0513053661 1.6226502203 1.6173049176 -0.11489492582 -0.50178437148 0.75356899659 -2.472887512 -3.7835407553 
-4.9437013274 -6.5365483452 -4.5287001825 -2.6174567014 5.7301087579 -1.7375538653 4.3112382681 0.42463022072 5.1300845442 
3.028203591 3.6973105348 4.7887059349 2.4461698185 -7.8218375969 5.2487320541 5.444246995 2.2914263638 -0.50023114191 
-4.1305467704 3.9252019801 3.2795736032 3.9389228194 8.3348697205 -2.2313723061 -2.1139517591 0.2507705428 -0.85668265447 
-1.9071290528 -2.0186351027 0.91815814469 1.9467878598 3.318249276 4.4787448507 4.4143477797 4.5161309452 2.5897141893 
3.0791747665 8.1557046883 -7.3622491376 8.8880189052 -6.7531528075 -2.3701337 -6.9931030879 1.9756219152 9.4603256347 
2.7275485733 0.092929733715 1.1778727314 -4.0314474417 -1.4297328281 -2.3691013983 0.62024224498 -2.437710396 -9.0582096195 
-0.40952607989 3.6341536434 1.7665464305 5.3503681643 1.6625097682 -8.6016832456 4.8162219058 9.5680803987 7.2644251973 
1.121517864 -3.8404572435 -3.4898642403 -4.7254044859 -0.54761112512 -3.6049940311 -2.7724519663 -2.822565307 -1.512151222 
-2.7784249072 5.362970032 2.2337204577 -5.7281073712 1.9194345036 0.18956755557 2.7187195638 7.5067058494 -1.6032712528 
2.4309435823 -1.5683710061 -2.03071586 5.8886800648 1.827697677 6.7822225245 -2.0038085452 -2.4701418639 5.4974049045 
-3.1521290788 -1.9160844846 -1.7971750536 -3.234239883 -2.1766158827 -5.8732496958 -4.7812043521 -3.6785574947 -3.0674649351 
-5.2542434152 -3.9325780429 -0.61559512804 -4.1173282459 -4.4172636605 -8.5314580625 -7.7319304376 -8.1908949791 -0.53205398771 
2.1517548416 -3.3488142379 -1.9271835941 2.0835278129 2.1403907395 -0.77914826602 6.1693312555 -0.17222278456 5.3929495181 
-4.0212595188 4.3791570384 -6.3798348937 -3.8852598636 5.1780905772 1.6242223524 -3.3443177134 -0.19346503945 0.67417802773 
3.9877072747 -9.7285947998 0.44865210383 5.1439964354 2.4327928467 -8.8381473563 1.6439932362 -2.6468016455 -4.8957644564 
3.8310340723 -0.60194674786 0.22102104544 -5.9318328972 -1.4316666404 -9.5051972617 -0.1808349038 -8.5906449124 6.8606796096 
6.992139576 2.0662493133 -7.9435275928 -8.0159827267 8.189258142 7.4817079368 8.2055815839 -3.7821043405 0.089345707765 
9.2751628787 1.9523647007 4.2119558455 0.27832440045 4.7331453709 1.79117213 -3.6623502009 -2.532401976 -8.6624725919 
3.5920127312 -2.7547926379 -8.9562580619 -5.9495327121 8.7579646267 8.6324250827 3.6434618864 -3.821384201 2.5554936158 
-1.4689667339 -2.1280071493 -9.3735796531 -8.8161565342 1.1801263977 2.7028090557 0.494867672 5.2175961261 6.3424884195 
-7.5384083567 -5.0296511588 -7.8368117139 -7.6812980777 8.8555773862 8.7557853575 -8.9861250383 -8.928026142 -7.9571782724 
-9.0901757833 -8.6151301842 -9.925989811 -7.9422389356 -3.9858151392 -3.5301855486 -1.554968786 -6.110606255 -8.41846222 
9.2276348095 4.0309662583 -7.6089530699 -3.6481549143 2.0333967277 -4.2533422354 9.0844352552 -8.4189848182 -8.7053028541 
1.0042264076 -3.7219574438 3.2386210648 -3.0093944711 0.2111108658 -6.5638853326 -9.4599997893 -9.2856274371 2.3144940824 
-9.6659452055 -7.6116936888 1.2402271549 -9.6564750794 -9.6018850415 -0.66528575655 -0.090626525182 -7.227025941 -4.5710402982 
0.30801909456 -5.5872215241 -5.9531569395 -5.6998411507 -6.680547537 -8.2849849803 -6.6119819443 -7.5155178858 -7.1139075686 
-8.3830781656 -6.9228100493 -6.8600132431 -7.8938779812 -5.1475604447 -6.3103077738 -6.4434905824 -9.2138077038 -7.8753293938 
-5.1774189446 -6.6330536528 -4.9055150491 -7.5725589093 -2.0613521323 -7.3090006084 -8.6656070427 -6.9987111297 -7.1582642751 
-8.0577410905 -9.4083985472 -7.98546841 -6.9322570084 -5.2460529408 0.89747229522 -7.6712000796 -5.9373300614 -0.78363587626 
-5.8364987556 -8.4162367661 -6.8349930406 -7.3417013739 -8.5978091364 -9.6440156282 -9.8332973901 -7.2023516533 -8.9751784511 
-9.2630765511 -6.5758516062 -9.0695313362 -9.4378914858 -7.8844619933 -6.2373846536 -7.0098667266 -9.7668374682 -8.0417598782 
-5.7262144137 -8.9192850124 -5.8635925995 -5.6771051946 2.1821130246 -8.4655034406 -3.3857274151 -5.669518336 -8.741040142 
-9.2162963811 -8.3880096608 -8.7147035891 -2.8074976393 -5.614030752 -6.2056583449 -4.871213047 -4.2623493162 -9.0654592835 
-5.8902497467 -7.7150751835 -8.8812664553 -8.6304822187 -9.3257033551 -8.8859537152 -6.6975312604 -8.3000068001 -8.8568355633 
-8.5315401767 -9.5154657101 -6.6265789693 -7.1707252355 -7.9178631192 -6.0421589527 -7.9385175783 -7.9060298433 -7.6451145512 
-9.2144538742 -7.4192013548 -6.1013898702 -7.5188818442 -7.4556412677 -7.6323680487 -6.0651344479 -5.3686160518 -8.3888941977 
-6.1186522232 -2.501742273 -2.0044373886 -0.99592209578 -4.9789167651 -6.3307491982 -4.8199690396 -7.0914203975 -5.6736317267 
-2.5139324991 -1.2665125889 0.55265955198 -8.849944078 -9.1528794545 -3.2664543637 -8.6276993671 -3.0087519089 -5.8947480668 
-6.2220274636 -6.0947016774 -9.7069740462 -7.9523800214 -8.3587364208 -7.8265212275 -8.4111981431 -6.6932899314 -7.5434272143 
-8.202507679 -7.7838363647 -6.8643104769 5.6103681536 -2.748826573 -6.9459798024 1.7871302535 -4.9238480367 -9.761210204 
-5.3973469672 -1.2093413699 -1.7353074626 -6.8739786732 6.1433388924 -9.7620900777 -6.4056676007 1.7259830894 9.5176683093 
-8.1353821952 2.8073594106 -0.65450941219 -1.0781933395 -7.0318402399 -2.6697220035 -3.6454310423 -4.0340811374 2.333261853 
-1.1053245609 -2.4900899526 1.2031317815 3.3611802954 -1.55830576 -7.7681545449 -8.5009029441 -3.6808647271 8.5202437696 
1.251726798 3.0204673136 3.0505800056 -7.7475164912 -9.2239180834 -9.3097820689 -5.5627238516 -5.9550339938 -9.5442834828 
-9.0975900729 -3.1992656984 -6.6173985468 -3.7558649354 -3.7209225098 -6.4904039259 -8.2083028424 -7.1637754869 -7.9263168734 
-8.7071158872 -8.2447573059 -8.7008284229 -8.7008481447 -6.5111087168 -9.5308027607 -9.0040481036 -8.8780682059 -9.4362091009 
-3.3144330736 -7.9494474677 -6.9638901296 -8.9813222826 -8.5082811457 -7.104639597 -7.7171756485 -9.4120964151 -8.8410689361 
-7.2254165428 -8.8451860569 -8.5783052614 -8.4084813374 -2.5994609157 -8.2588867373 -8.3314740903 -0.84860335364 -7.2687227351 
-0.45474331078 4.6338620689 -8.2309879345 4.6258129355 -4.8962201817 -7.3135999595 4.8642333541 3.4183120706 3.7334365821 
-5.0316653986 -2.2953050796 -4.9530484818 2.5549330652 -7.0005989436 2.1568808775 -5.7782126128 -4.4883847071 2.1966450541 
-8.8793519093 -9.9780972269 1.0383474636 -7.248436866 -8.993331371 -9.0161180055 -4.7618498277 -9.8355765787 -5.9815252774 
-7.3371634941 -5.5525891921 0.70822989989 0.97145586208 -7.4046764845 -2.64773177 -0.65857565844 -0.81373809586 1.6169207621 
-5.8018575021 2.5721791686 -9.0437880544 -5.8109867852 4.499766008 6.5140017353 -4.4592019666 -6.1630241107 -4.7502508659 
-9.9431483325 -5.7990944492 -4.6332958971 -5.330760461 -9.456636327 5.9812862054 -3.0728891122 -2.9816593721 7.926793294 
-1.99240578 1.2161833569 -4.6086688222 -1.8816369966 -4.9679306229 -8.658588204 -8.5965716508 -2.1925697912 -7.0777557376 
-7.7275697673 -3.0208905244 -5.9376994379 -7.9710805874 -8.3038909051 -7.637487501 -8.2694027643 -7.075070177 -7.498276058 
-0.46350020356 -3.5791992777 -9.8876238056 9.7360174767 -9.915529975 -9.5955959316 -8.3423300409 7.9900353854 8.0268061554 
-7.4979879941 -1.1290622168 -4.4160767747 -5.2050566363 -8.1286022413 -6.772189467 -9.7827569839 -7.8519508399 5.855166047 
-9.0953208855 -7.7553515135 -9.398106069 -7.3598174953 -7.1822679541 -9.8043422112 -9.0211304187 -5.4565377666 -8.4669509846 
-3.1759400417 -4.7796336717 -8.063412898 -8.1131313725 -8.6626991214 -8.0869599469 -4.0215382373 -2.6816905663 -9.7116474854 
-8.1880341452 1.4113963138 -7.9993447325 3.3003594977 -2.7308116618 -8.3303325915 4.085768322 -7.0102340149 4.7640477986 
-9.0516824648 -7.7518452244 3.4828754647 -1.7775242684 -9.0039578709 -9.2175626616 -8.9912264075 -8.943168833 -2.1298143082 
-5.8194311194 -2.0154796538 -4.4726302196 -5.5582410219 -7.4037224831 -5.372331668 -0.83545187796 -7.3521593919 -9.0321389116 
-8.259841936 -5.4830640824 -2.1369366814 -2.3066495327 -8.6353940966 -3.1618181718 -9.1577824812 -8.47995367 -6.5008425835 
-5.3595771185 -8.1192084338 -6.5182130883 -5.2506908571 -6.216846283 -6.4299790324 -8.4207345069 -5.2584839815 -2.4756762144 
-8.222610902 8.2108422984 7.7057930961 7.705911619 -3.9974383575 -3.1181532575 3.1786067929 -7.6149155041 -1.4986720865 
-3.7451944768 3.5091514922 0.51775059808 1.5639877005 -8.0965843247 -7.1152198193 -9.3335965395 4.6177432296 2.6764612534 
-2.0261550602 8.0626170727 -5.9990135842 -4.7438723138 1.7581244191 4.767813535 -4.5445163979 8.8466058151 8.3797920467 
8.1704953782 3.7848680754 -1.0035964521 9.6000319882 9.3847815322 7.9795380574 0.32141441275 4.1028173247 7.9862578482 
0.79405320606 8.3579551069 7.3069308807 -6.9742892013 8.3896156781 7.9681270269 8.809992746 7.9380677441 9.9725747416 
9.3469984828 5.2210310575 9.2610976613 8.6307468748 9.9625008282 5.4797170445 6.4626523479 7.7015252472 2.1938395797 
7.4793399785 4.9805155991 9.0594041604 4.2675474733 -0.85156307249 2.5643122285 4.498167966 8.5197944637 2.1092300615 
8.0771506091 9.3597413746 6.5582728427 6.1820605576 0.28400261296 6.020351281 6.1515824047 3.3646450338 5.0936826953 
9.9503886223 9.1048961733 8.3155975535 9.3171813027 8.3373818387 9.2912479683 9.9439132414 8.6389685818 6.1988704184 
7.9318107978 5.519304141 8.1514654778 4.9332659582 8.1903966177 9.5682021392 0.67380017198 -0.32213671837 0.25781434542 
4.7816925339 9.1930385202 8.3237035856 1.3739208838 5.867032709 8.6755228211 8.9654543249 6.2004096847 6.8173981268 
8.9990699793 5.7138671915 6.6384710588 8.7802926498 5.2075439839 8.4053411364 5.2034913607 8.8633122257 9.4699487252 
9.8201620246 9.0752761237 9.3233392406 9.2292384986 9.0924779675 8.455353305 9.8063898405 9.1114295425 8.5450099809 
7.733968076 9.0261771746 6.9355202644 9.8708750345 9.7574662439 9.0437656247 9.7588376148 9.7078883654 7.3557306126 
9.6266512307 9.8422234167 9.821678914 9.0675635307 7.7672800136 9.039477401 6.7801662222 8.6009891223 8.4904140044 
8.5551719071 4.7934050043 -4.0701154911 -3.3915628216 7.3840437555 8.3203307707 8.8347353236 8.4510027128 9.5273273697 
7.9238957886 9.1099221709 9.6331858971 9.7727966405 9.896841545 9.8821697713 8.139695798 8.5037346927 9.6887481953 
7.9321504004 8.0690407864 8.2748152416 8.8923355913 8.4557009167 9.8779772802 8.9068734632 7.7543407031 8.1276289624 
9.0379798151 7.3222426646 8.7870779421 8.2493504408 8.4044656115 9.810173095 9.9720645879 9.1849179782 9.9828797026 
9.6920756833 7.5224886618 9.8598812945 9.3678401014 8.9741072369 8.956387974 8.9645790993 9.6364518613 8.9119761409 
9.9364169168 9.3211542387 3.0122822711 7.4205008428 6.0946419354 1.9920987541 5.0497489918 5.4508882342 7.8135785466 
6.1697675385 5.0083115126 4.0254530268 9.3831916355 3.3108787049 9.6461931579 6.6212533777 3.747186103 4.7760457316 
9.1074737459 7.0042619497 9.9201345027 9.0003151492 9.9139636374 0.64880532518 9.0314258929 6.2514354144 7.329447823 
-2.7275781295 2.4973841742 8.5796594553 -7.3096909294 8.1911417867 5.4253733168 -8.7048229456 9.5720070142 8.3106118176 