# vtk DataFile Version 5.1
vtk output
ASCII
DATASET POLYDATA
POINTS 1244 float
-0.931019 -1.46664 -1.32612 -1.71051 -1.75023 11.8955 -1.86816 11.2628 -1.46228 
0.601012 10.5263 11.2605 11.3177 -1.2708 -0.822963 10.1432 1.17564 11.5282 
10.1756 9.5783 -0.229737 11.0325 11.7836 11.3891 -1.12739 -1.10951 0.274209 
-1.32901 -1.37362 1.38894 -0.930939 -1.01693 2.76965 -0.999411 -1.57596 3.92384 
-1.17183 -1.31012 5.33643 -1.18766 -1.36845 6.46887 -0.962223 -2.04186 8.05547 
-1.01719 -1.09805 9.33387 -1.07707 -1.35044 10.1421 -1.12406 0.251595 -0.957681 
-0.502253 1.03157 -0.367699 -0.717224 2.53303 -0.779592 -1.35133 3.70639 -1.08043 
-0.916933 5.11669 -0.600048 -0.795891 5.84377 -1.72249 -1.28488 6.72144 -1.31334 
-1.79862 8.15283 -1.06946 -2.10772 9.68814 -1.30432 -0.824494 12.5977 -0.0697783 
-1.86832 11.1583 0.706702 -2.79939 11.2706 2.34371 -2.44092 10.202 3.64623 
-2.50108 9.7939 4.97256 -2.80348 10.6188 6.31436 -1.91968 11.3318 7.64551 
-1.60785 11.7179 8.71699 -2.62846 11.5151 10.2625 -1.59766 -0.0892336 11.2705 
-1.78538 1.21984 10.8211 -1.21836 2.2752 10.4797 -1.15935 3.86553 10.5858 
-1.67256 5.14797 11.4579 -0.83493 6.25861 10.9173 -1.50733 7.5512 11.186 
-2.49652 8.69716 11.0932 -1.95448 9.51893 11.6694 11.8065 -1.42488 0.723618 
11.6199 -1.85052 2.39423 9.65253 -1.56917 1.73033 8.37014 -2.84787 3.27703 
9.76629 -2.75037 4.3536 9.43617 -2.27946 5.80709 9.9638 -0.978243 6.44392 
10.9203 -2.02042 8.9235 11.7942 -1.9815 9.8335 11.508 0.128408 -1.55198 
10.4685 1.533 -1.46203 10.2203 2.72996 -1.22586 10.6056 3.58797 -0.837794 
10.3754 4.63446 -1.83789 10.6375 5.91477 -1.21024 11.0504 6.65863 -1.07544 
11.6043 8.40214 -1.15612 12.1472 9.94143 -1.81862 12.542 11.2791 -0.500298 
9.1155 10.0925 0.814616 8.05549 8.05455 2.06003 7.38952 7.19723 4.13433 
10.7133 6.64854 5.30861 7.34748 8.26502 5.1432 7.42475 7.17177 7.58016 
8.48522 9.91249 8.04137 11.8682 12.431 9.80435 11.7328 0.634774 11.2852 
11.7373 2.14112 11.4678 10.7291 2.5794 10.9518 10.7361 3.51148 10.5386 
10.7825 4.83146 10.6445 10.7953 6.23924 10.8228 10.5888 7.32542 10.5095 
10.556 8.65359 10.6851 10.9647 9.93505 11.3486 0.782784 -1.85515 -1.53932 
2.0675 -1.92447 -2.49733 3.12762 0.266796 -0.590143 4.23787 -2.37271 -2.08128 
5.04685 -1.4862 -0.813584 5.90668 -1.23273 -1.82485 7.24218 -0.99031 -1.66851 
8.72143 -1.69724 -1.20115 9.91376 -1.20097 -0.91635 0.102706 0.0300859 11.8891 
0.931936 -1.31424 11.6768 2.9106 -0.555031 11.4001 5.09382 -0.413228 11.4409 
5.53656 -2.36234 12.1684 4.29218 -2.01023 9.82179 6.36926 -1.87355 10.4096 
7.83503 -1.79316 11.9517 9.54827 -2.11859 11.858 -0.411197 11.4953 -1.63682 
1.2452 11.0954 -1.83865 2.67153 10.7441 -2.1077 3.96311 10.2645 -2.28503 
5.39845 11.2829 -2.73681 6.12768 10.0554 -2.3817 7.61218 11.0166 -2.60893 
9.53827 10.8145 -1.95542 10.3667 12.5037 -1.73316 0.643679 11.4535 11.4486 
2.08404 11.4353 11.3457 4.0248 10.8106 11.0136 4.82205 8.88298 11.6873 
5.21696 10.723 12.8117 5.09726 8.11694 12.1071 7.11587 9.15096 9.67663 
7.92626 12.048 10.737 9.16881 11.6709 11.5167 -1.02995 -0.361868 5.01918 
-1.15772 -0.399924 1.65488 0.580805 5.73019 0.848799 0.257877 9.03591 3.37819 
-0.724066 8.48966 -0.0178651 0.730465 6.07048 7.67526 -0.675145 8.83572 10.1605 
-0.209676 9.47039 5.66267 -1.05887 -0.952128 8.44233 -1.67935 3.06083 10.1699 
-1.07527 2.90412 0.0695237 0.839418 6.14765 6.54644 0.967815 3.64704 4.06017 
0.819354 2.87411 6.20097 -1.19168 -0.377824 9.79415 -0.935321 -0.570081 6.44709 
-1.27881 -0.625936 3.6096 -1.17329 -0.195591 -0.244515 -0.049082 4.63455 9.27593 
-0.562936 5.63183 10.1443 -0.417112 6.71055 9.70514 1.81518 5.60552 6.52719 
0.493034 7.91473 7.88653 -1.09397 9.92356 8.70786 -0.554131 10.6373 7.59846 
-1.36325 8.87512 5.48385 -0.567453 4.43064 0.990185 -1.29705 5.66073 -0.747783 
0.583567 6.81131 3.10742 -0.20248 7.06504 0.866751 0.375934 8.28835 1.8464 
-1.3839 10.0869 4.27929 -0.840172 10.53 2.32398 -0.286618 10.5578 0.968534 
0.233738 6.92582 3.7031 -1.19335 6.41549 3.20743 -1.02375 4.09856 3.42685 
-0.0491088 7.55197 4.15568 -1.52843 6.37527 5.68696 -0.20954 3.75192 2.78796 
0.12794 2.62788 1.59208 -0.958858 1.23039 1.08543 -0.131591 1.61887 2.62658 
-1.17109 1.69638 4.14112 0.057495 4.46488 7.21145 0.23619 2.73785 8.28172 
-0.14684 1.28689 5.66265 -0.149929 1.06697 7.25354 -0.731916 1.32618 8.94963 
0.884345 3.13569 3.62704 -0.585907 4.53646 4.93846 -2.2239 3.52187 5.44025 
-0.813841 -0.201962 9.07024 -0.784945 -0.475419 7.07045 -0.975985 -0.615341 5.48771 
-1.44638 -0.327987 4.41016 -1.10957 -0.552904 2.3813 -0.86259 -0.119942 0.835396 
-0.543454 3.54113 9.70157 -0.706171 4.50329 10.1057 -0.424709 5.27465 9.73532 
0.298773 4.93242 8.29803 0.194039 5.63637 8.86472 0.311544 6.15877 8.62166 
1.61586 6.8869 7.22648 0.463823 6.96445 9.30072 -0.650067 7.52765 9.57612 
0.204122 7.56591 8.8023 -0.369308 8.39455 9.09204 0.992023 6.93222 7.31594 
0.82408 7.24981 4.8772 0.922572 8.20615 6.78951 -0.505653 9.06499 9.38733 
-2.17871 9.73572 10.1504 0.0367018 9.43909 6.94613 -1.22395 9.74227 6.9477 
-1.61389 10.8886 6.70621 -0.44542 10.6556 8.47778 0.143748 9.25435 7.69013 
0.16471 8.9252 8.3155 -1.6144 7.22136 10.3272 -0.522319 6.41095 10.2715 
-0.594667 3.82063 0.256511 -0.775569 4.46137 -0.124509 -0.488508 5.14211 1.71384 
-0.822707 4.89978 0.437937 -0.540276 5.61811 0.121373 0.677017 6.42449 2.27085 
-0.11531 6.59743 1.26009 0.390608 7.10998 1.88391 0.811448 7.81802 3.37952 
0.685573 7.64152 2.41753 0.674795 8.47553 2.57586 0.33845 7.79735 1.22691 
-0.771715 7.63786 -0.0452277 -0.00274668 8.31665 0.69029 0.258705 9.35289 3.8389 
0.287095 10.0179 2.79162 -0.579844 10.1944 3.22456 -0.562284 9.08095 0.0274019 
-0.820181 10.2674 0.217531 -1.04265 10.0482 1.44971 0.449701 9.1805 1.13643 
0.161789 8.95154 2.21238 -1.01584 6.84417 -0.108128 -0.384889 6.31894 -0.107989 
-1.13059 9.02697 4.92236 -0.50776 9.16909 3.988 1.23759 7.82787 4.91938 
-0.366959 8.00617 5.41919 -1.67329 7.99039 5.00559 -0.383746 7.98683 5.22538 
1.22989 6.60577 4.49377 0.325221 5.71705 3.56663 -0.459367 5.51086 1.87962 
-0.414969 5.12999 5.42148 1.5309 7.64245 4.62703 1.5495 5.82493 3.52992 
-0.466574 5.82253 5.90399 1.58675 7.80522 7.45951 -1.81448 5.18029 4.917 
1.19749 5.76858 6.32794 -1.50235 7.27374 3.27929 -0.887213 8.13226 6.26372 
-0.43919 6.26021 6.94859 -2.01974 8.24297 5.54572 0.856677 8.09028 6.79553 
-0.154994 5.91458 5.51264 -0.408614 4.7842 2.43153 0.368324 3.97461 1.61652 
-0.129261 3.5207 1.13231 -0.401831 2.97632 0.626273 0.442263 3.253 2.08822 
0.455519 3.27435 3.52305 0.847704 2.59013 2.91835 -1.10281 2.29818 0.290784 
-0.648465 1.26722 0.160753 -0.922532 0.652188 0.293721 -0.72423 0.427933 1.35699 
0.365924 2.21764 3.39525 -1.15203 3.06152 3.77382 -1.1811 1.0348 3.23413 
-0.896931 0.858025 2.3111 -0.876986 0.0541867 2.91884 -1.11175 0.390528 4.02463 
-1.06998 0.655727 4.57602 -0.577637 1.38001 1.76219 0.290945 2.07842 2.15424 
-0.0380612 1.91916 0.851205 -0.385476 5.10193 7.14723 -0.17075 4.08636 8.13955 
0.222788 3.55582 7.09974 0.427314 3.45232 7.83262 0.363 2.77476 7.15742 
-0.249808 3.62464 8.79133 -0.178804 2.84984 9.22157 0.30379 1.70776 6.12893 
0.698532 1.88222 6.80482 -0.290388 0.982503 6.74803 -0.569692 0.544169 5.25619 
-0.32741 0.246876 5.96821 -0.49924 0.378419 6.89232 -0.485373 0.517009 8.00513 
-0.716616 2.31186 9.2142 -0.642093 1.39458 9.77134 -0.569575 0.722836 8.62461 
-0.976296 0.585954 9.88666 -0.122332 1.50379 8.25438 -0.24056 2.07321 8.58101 
0.0555363 2.05266 7.69691 -0.455279 1.39162 4.93208 0.727107 2.30162 5.12109 
0.761594 3.026 5.06053 -0.36918 2.39291 4.87052 -0.573407 4.26275 2.1345 
-0.12218 3.81932 6.32345 -0.42374 4.75487 6.30998 -0.829016 5.53034 6.79555 
-1.35917 5.04415 5.72348 -1.35205 4.83676 3.37038 -0.453808 5.15564 5.0531 
0.189336 4.98427 3.38338 1.04015 3.8764 6.08485 -1.21903 6.05806 5.44894 
-1.40019 6.08925 3.40762 -0.240748 3.16496 2.93496 -0.748167 1.98229 3.84033 
-0.109291 3.55679 5.78567 10.6528 -1.35503 5.04502 10.8223 -0.426513 1.9212 
9.99291 5.80552 1.78046 11.1257 9.01287 3.98168 10.2308 8.35175 -0.196959 
9.43473 6.06543 8.46362 10.6328 8.73845 9.96016 10.9441 10.4042 5.53669 
9.92095 -0.51904 7.65518 10.6591 3.08347 9.73991 10.3709 2.92567 -0.0424122 
9.33721 7.18875 3.452 10.0395 2.92117 3.17876 9.99359 4.61783 6.5777 
10.5723 -1.05607 10.264 9.6141 -0.539441 6.18582 8.81347 -0.957596 3.4383 
10.9466 -0.212576 0.251913 10.539 4.31292 8.82805 10.8683 5.56216 10.0088 
10.2205 7.05047 8.52545 9.03327 7.45888 6.67955 10.8608 8.7824 7.65001 
10.7207 10.1988 8.62132 10.0508 9.99421 8.60079 10.5984 10.3673 7.07003 
10.1871 4.52307 0.72333 10.2109 5.5676 -0.364697 9.58832 6.48893 3.36665 
9.90331 7.21424 0.941498 9.13416 8.30295 1.81685 7.6486 9.91341 3.58833 
8.78039 9.48941 2.68219 9.91028 9.38842 1.70035 10.476 7.29008 3.08115 
9.07802 7.69777 4.50801 10.3061 5.76671 3.98434 11.1874 6.86313 7.66342 
10.3144 4.99106 6.14335 10.2579 4.48195 2.62366 9.9083 2.84314 1.61195 
10.1701 1.25875 0.864837 9.33278 1.43499 2.34559 9.29394 1.45504 3.7968 
7.27683 4.13142 7.16281 10.9573 3.02692 7.56587 9.49135 1.40997 5.83293 
9.60061 1.59365 7.29545 10.132 1.39676 9.24419 10.5594 2.79071 4.66334 
7.88781 5.60305 6.50205 10.0325 4.68187 4.54201 10.178 0.0179947 8.52085 
9.4628 -0.389482 7.36596 9.73477 -0.651027 5.6482 9.42552 -0.77889 4.16045 
9.48286 -0.14627 2.39927 10.5006 -0.210023 1.10777 10.473 3.53219 9.79182 
10.8697 4.16245 10.0531 10.3679 4.88539 9.80469 10.2096 4.96853 8.8359 
10.2307 5.88486 9.2354 10.146 6.39989 8.1207 9.19123 6.25377 7.0781 
9.55417 7.02383 7.51958 10.4954 7.8381 9.65399 10.3925 7.5804 8.65902 
10.568 8.24191 8.66966 9.53443 7.88122 7.84915 8.86473 8.62396 6.11714 
10.5859 8.20625 5.45976 10.5714 9.15235 9.3742 10.3852 9.74594 9.57003 
10.5228 7.755 8.47289 7.32421 9.44738 6.86763 9.11953 6.59526 6.38375 
10.63 11.6602 7.8515 11.4135 10.0735 6.37046 10.5156 9.59503 8.43616 
10.7737 7.22403 9.96581 10.5141 6.61692 9.59173 10.3468 3.70026 0.145209 
10.3391 4.40875 -0.368136 10.127 4.84567 1.23989 9.92653 4.95675 -0.228274 
[...]
CELL_DATA 2484
SCALARS scalars double
LOOKUP_TABLE default
-6.2493197169 -2.4053946582 2.6975976121 -2.7466786623 -7.9162131375 2.3049829554 2.9761750008 3.0191510354 2.7120226125 
0.58508078125 3.0053134472 -3.0670561498 -3.4141042469 -4.6072947532 -1.1184431206 2.0536618744 1.0414987438 -1.0528883259 
-0.85029557716 3.5977872808 1.4691187679 -3.172970445 2.1804794913 -1.7762537767 -0.31610513017 1.2072924704 6.3125173904 
1.1596804366 -2.4175572307 2.4164829884 1.524626131 2.647613091 -0.13007658206 0.99871528852 3.1784560756 0.14311508322 
5.7928584122 6.195989585 -1.3023999072 5.060515067 -2.9377719256 1.2516097776 -4.157281869 -1.9657715237 -5.2313565704 
-2.1586959996 -4.8561352128 -0.27473659037 -2.3831822342 -4.1179099928 -6.6741530915 -5.2914707608 -6.0501576305 -7.2122819219 
6.8487338465 -9.1411401725 -1.4259749805 -1.5872065972 9.2444913443 -9.7206745119 -5.9018282969 -2.6532156156 2.237018487 
-8.1797040831 -5.2669898032 -8.955118285 -8.6264880606 -5.863945879 -4.4956123071 2.418606117 -7.4459236603 -5.8942065999 
-2.8602131162 -5.81001406 -6.9335625753 -0.20889954451 -0.91332817629 0.64428816555 -2.6558399741 -0.21260013269 -4.4099850175 
-3.1807071657 3.5771899893 -2.7824490073 -6.0336096708 -3.9512960284 0.16619806805 1.2693581382 -0.08522034328 3.2519882632 
1.1425574935 -7.1243153291 -6.9741655866 -4.884210967 0.35155289344 -4.9862254631 -1.6888977842 1.2530244767 0.44945237171 
-1.8156035505 9.1846267548 5.0647805769 4.1975758157 -5.8985057941 -1.7369128414 -5.8074189156 -3.1340579252 3.4507768116 
-6.8191476193 -3.5566434063 2.4679859993 0.21434006082 1.9619052857 -4.0713149325 -0.87126362296 -0.38730318219 2.4583077749 
-2.9724662503 0.16092565348 1.632429483 -2.3539787624 3.7345445444 2.9614880286 2.1545429138 0.21839605017 -7.7507556782 
-9.1626704066 -7.669196781 -9.5431199062 -9.0763944486 -7.8405819118 -9.9151468008 -2.6016015956 1.1127723263 1.7889079107 
-2.5817335565 -4.8703855273 0.6756056766 0.67070769496 -5.152564643 -3.6292522586 -2.9050852446 -9.2620430467 1.3029746985 
3.1501772789 0.40726378717 -3.6937686064 -4.8508665563 -1.8193451872 -2.695300913 -1.4849728839 -5.0153801914 -3.0010018388 
-7.9246470644 1.9045689534 1.4508000192 -3.6377725823 -7.1622169271 -0.17295755538 3.580903161 -6.2698378747 2.5674610475 
8.4172022948 -6.272103234 -5.5430717047 -0.29794020903 0.16394537823 -7.9190816129 1.0407410829 -6.8633465648 -5.4597052264 
-3.8151023143 2.9650387606 -5.8539407154 -6.8403960403 8.5941397239 -7.0473816473 7.0209332476 -2.9375422472 -6.6554465345 
-4.8886954228 -6.6301642512 -3.6278771688 0.86638587794 6.9299566424 -6.0213728667 1.5396199753 7.8538851663 6.0136349324 
7.2305739933 6.1219792577 -8.0759564715 1.3548143317 -3.5846763042 6.4212214543 -7.4843752011 3.7620320439 7.3264310578 
0.08644600875 -5.3286506859 2.3142456222 6.9381984252 5.5405963201 5.5643118511 9.2910725483 -5.9448406519 4.7165388492 
0.59607348543 6.8794564303 2.8988425633 2.1080019639 -3.8855694579 -0.78150581519 3.6901492861 -7.5436863849 -1.3452007605 
-7.8267903799 1.8229121605 4.2820881312 0.91638594223 -8.9270995156 -0.1644464398 -0.45210397213 -6.1459821349 8.2668205495 
1.5599518435 4.0638140678 6.1300124859 -9.5525673634 3.2559720286 8.8322087908 -5.1458396192 -3.2028118306 -5.6965047575 
-3.6550363881 1.8193995351 -0.060416062882 0.044982344494 -8.0290660155 0.61795319128 -7.0969920883 -5.0751136092 0.19808273956 
-3.8622663169 -1.690962484 2.7818246956 -2.149564675 -3.5025536836 -1.441618303 -3.938159671 -2.3768151373 1.1328673826 
4.0272365877 0.6112109609 3.3731000694 7.3962059551 4.1941393617 2.3527805294 4.0980962228 7.8328778824 0.14149928419 
2.5740789493 4.3345074249 1.5305695025 4.3054191867 1.5631596895 -0.5417594988 2.7021522496 2.1218645294 3.7117519339 
2.6479128476 -0.49538235615 1.0118242978 -2.5689884396 3.4810365469 6.5367138941 -0.81473053401 2.6339541547 6.6038633558 
5.0469399 2.2723383672 7.6699156424 5.634028131 -2.183850371 2.9199133987 0.32074183112 -0.32985455381 8.0963351277 
7.418636045 7.6188291122 5.3043158857 -5.4934668674 5.0111670092 3.3919918125 -2.0189306484 -1.9006333241 1.9576487218 
-1.5370045405 3.0918419042 -2.8112113554 3.1994358111 -2.6012552842 -1.3011501618 1.8832236104 -5.201486198 -4.9376951943 
3.4887642025 6.7751612503 7.3631979825 7.1842669594 2.7157804244 3.6829198013 5.9910336569 3.7388187275 4.7172918117 
3.44464904 3.4550411357 3.1212596147 4.9259527105 3.6148252604 1.4472042102 2.7333369505 3.3590614159 -0.14048524227 
-3.3424971791 -4.6282182373 -0.85286805701 2.7554916506 2.3627482223 1.0904048163 2.3539612479 3.893453151 2.956781693 
-0.31950135661 3.4102924228 1.3612133199 3.7235290755 3.8928675709 1.8178912168 4.4389345863 4.0280619739 5.5737079762 
4.0879994261 3.2894370663 -1.5924843207 -0.80463276169 4.6794110802 2.3629218115 1.961645712 -0.14911903023 2.3153196049 
2.7336876956 2.2680103268 3.2649914692 6.7780559842 3.9717691977 0.4053981645 0.12149375865 1.8331616655 8.2610767961 
-8.1761121689 8.186226777 8.7421798858 1.0403189854 7.1165440952 0.78401216394 -7.0855681093 -2.1156303677 -3.0080820108 
-2.8813667648 -5.0543073376 1.2246228263 2.4996395816 1.1708640106 -8.6677448954 -1.2749492888 0.28876883005 -0.61467839529 
-0.98018575611 -8.9804292344 -5.6361629974 -6.308506043 -6.7913691502 -6.5707611164 -0.65696572094 -1.7167608507 0.76352233846 
-0.40346497931 6.3796000442 6.560160319 -3.1351244888 1.6840448099 -5.3419517719 -3.5489462715 1.8436400366 -3.5966449937 
2.8588408547 -8.2076994299 1.9188976928 -9.7875981428 -5.8070945899 5.7605211922 3.4968537831 7.4655243877 -5.8388980031 
0.86966972582 -3.3262367599 -8.0460645329 -7.0082896639 -8.8512890853 -7.229974721 -3.691132269 1.2547602607 3.8731963997 
-1.0117626557 5.0262697421 3.5448338733 7.0990693162 -4.2601669298 6.3009006453 0.93431537353 -1.5150291511 -1.4889115206 
6.5950834162 0.23333765993 -1.279355193 -2.381786848 -1.1740308618 -4.3281607613 5.3218928246 6.2888570232 5.0882841108 
0.27603976521 7.4033791609 4.7700249162 0.27653939741 -5.166921041 2.1174307314 -0.40448137534 -4.2359695444 3.9496858997 
-4.0950799295 4.4742969574 -2.9372529755 2.7140167757 0.45857957209 5.2483249829 -0.50557059155 -4.5547214122 4.381289617 
-9.206645611 2.43779952 -0.7411017829 0.42853653737 -3.0421275832 -1.5398772226 -2.5601375733 -2.5576298805 -0.48940596119 
-8.0887820407 0.87694018427 -9.0885284351 -6.7789543895 1.9083787886 -1.3141598185 2.6708707602 -0.84178504556 1.5425076725 
-3.3176571089 3.7864387549 -4.8505913784 -4.8712610135 -0.28181571879 7.3768168969 1.9566042258 1.7449343958 -4.7829849448 
0.28851826086 0.56904285641 7.9151654147 5.7748026834 7.7596496791 -1.4774340989 -1.939179502 -4.7857263827 -1.6071870462 
-4.0136860357 3.8895071969 -2.658575286 0.91687170151 0.49858348351 0.30987845744 0.032139029693 -1.7032069717 0.63155145702 
0.65837886512 -1.7780003851 2.1928469769 -0.19591481863 0.43853949621 -8.8129362381 0.091132404914 -2.6951193646 -0.22695953512 
2.6656646217 -2.2499251733 -1.90599714 2.5408052733 2.7804303543 -3.8911219531 1.0252660158 2.7390186723 1.7811052871 
3.3802750226 0.24527701824 -4.2391794235 -2.3250775078 -3.3469409236 5.7996485197 -3.4173368924 5.9254827333 -0.32415437239 
0.63510684104 8.1978775649 -2.4763712318 4.030010855 -4.8402323045 -6.4491168396 -2.1508355311 -7.585417192 2.3142755757 
8.0598450901 3.1742840924 6.6325113238 6.6048669469 2.4133613588 -4.1999176091 0.87633583883 2.3138702039 4.1948704299 
2.4657066753 5.959402104 2.1522649628 -1.2531981735 9.3009740217 -1.4435474075 -9.861286764 4.2822199503 9.6733263755 
-9.6852522858 -2.3857561986 5.6731658422 -6.5954946403 7.2079871627 6.7418005879 -9.0976793301 4.5527886077 4.5320569727 
4.3997108615 1.2600210693 9.9273553006 -7.9142641107 -3.5057306609 -5.422294543 -4.7806243597 -2.6505645527 1.373500752 
4.6706838714 3.1271015717 1.5637548906 -2.3501494985 -3.2391338468 -1.728932011 1.5144658318 7.7006136906 3.9167336138 
-1.5938741981 -2.6306432194 -4.8383763589 1.5165006985 3.3974550927 -0.58436059849 9.5784353275 4.2117848152 1.3188003913 
3.2857399831 -7.9548962202 9.3611471638 -7.0322404787 -4.9254932611 1.100990273 -1.822337849 7.7735557089 5.362372085 
-7.6402996534 -4.4993091179 -6.1898033043 -4.5836938841 -1.3286918869 -4.9222319425 -3.2731309919 0.55332479631 9.2856958259 
5.4160256505 3.8904068071 8.8186241778 -7.2063745476 0.5938125034 8.9064574018 2.9005397476 -1.7784450062 -4.0868901169 
2.6401960403 7.5180563768 -0.97498531044 -3.3778321799 -2.3912462914 5.1681187955 9.4254406712 -2.3361742562 1.6402719126 
5.9068138529 3.9229937598 4.6119061829 6.8923048216 1.815273406 -5.5185340295 5.6682202755 6.579256172 8.914709865 
0.54925129061 3.0661568145 -3.5729410927 -0.38975449605 7.4671673942 4.0811217396 -7.2093413579 8.4243186092 -6.1847240406 
-8.9008200665 -5.9840030282 -5.9366703004 -9.0807030179 1.0684392576 2.553117046 -1.536317082 -2.5120850441 -3.7284629277 
1.2350868314 -1.077812451 -3.9509507782 -5.711068032 -1.4851881507 -2.2988366759 -0.071087541256 -2.265192121 -3.5917000007 
-0.31031043395 2.8379654016 3.630495958 2.3061210577 -0.049082209231 2.7581630244 -1.6148637622 3.5090155591 4.7795166072 
2.1647890354 1.1217574145 1.5951949552 5.8316643447 -4.9777125916 4.9181590879 3.3884326389 -6.6460354068 -1.057287985 
-3.7026469382 4.5998829843 1.7813810058 -2.2360561158 -3.2644979173 1.1832087306 -3.4385657317 -2.0650072238 -4.0625259177 
-3.128953155 1.2886585464 5.0553000116 4.0961452837 5.3863154376 5.1790808409 6.2805268999 6.5353803711 -3.3192274912 
-4.1876914914 -5.7899332267 -6.4889614823 1.3266459433 2.8643289112 -2.348900026 2.3061706347 -6.3503809775 2.7046629911 
1.83550261 1.4307684743 1.6006717538 -4.3512300567 1.459368307 -4.027370778 0.20846539863 -2.6449496134 -8.8657768133 
0.53175538389 0.68550792787 -5.4189857288 3.9485574117 -5.1471995461 -6.0272065516 3.5445660844 9.5235751921 7.6211894041 
-2.0411263792 4.8172800397 -0.61368898696 1.905541406 -0.44158871242 3.6688429053 2.500268896 2.2039335565 -2.2649411367 
4.3616373455 1.8997580008 0.77182293254 2.7198109273 -4.1559161363 -1.6435400649 -3.411530066 9.0742304617 -4.483150811 
0.77057923357 -4.5693609371 -3.2537454809 6.5498828694 4.2157999676 6.7577991716 0.11090332463 -3.1648359497 3.3524133561 
-4.9792454178 -1.5486177074 -4.1484167524 -1.3912327263 -1.9753534125 -4.4138048169 2.3296982283 3.3139842867 -3.3839732107 
-1.5537363357 -6.4595907236 -2.2774761307 -5.103564474 -7.2361841793 -2.3566624681 -3.941899063 -3.5262240603 1.4612713023 
-0.18918927312 6.0224751819 2.1220476474 1.6669748932 -5.2794698412 5.0740969216 7.5995000196 -1.015337346 3.552914514 
-8.3188404289 -2.6398302605 -8.9258152662 -0.80059170603 2.3591217568 4.0838576573 -2.5905590605 0.32298915852 0.98732639682 
2.9689760774 -9.3541155599 -2.8790941968 -4.3753717725 -3.6834911742 -7.5438431304 -1.7308160866 -3.0559374089 -6.50310416 
-3.3569397997 -0.9408188036 -0.1313453521 -3.4333715846 0.13746009524 4.8774370607 -5.3673226365 -7.7164805561 5.1097853146 
7.199058013 3.0368317757 -9.9311313393 -1.4201322816 0.079183424637 0.58776658417 -1.6050533381 -1.3117743339 0.085659565436 
1.7562492832 1.7669307559 5.4293350344 0.58548043469 3.4099464897 3.657014068 4.5305679304 -6.1954264642 6.7048337504 
-5.0354518379 -7.6018387411 -9.5036836243 -5.953572868 9.2434788844 2.4167050989 3.1760828027 8.2448449191 9.7452019232 
-1.515567923 -2.8839956722 -8.3443553906 -6.887404983 4.1026563123 5.2703641973 -2.3754189914 7.1142587301 7.1023949482 
-7.9006552797 -2.4297645179 -2.5408845901 -5.8424640243 9.6708210247 9.6697598766 -9.5070336483 -9.6260327319 -9.6671634953 
-9.8960363678 -8.9713160008 -9.2504512007 -5.0614230478 0.08153811203 -3.6465043157 -2.9368034856 -8.7405841465 -7.5552062178 
8.4159136979 4.5514642078 -5.6262370523 -3.4415245775 6.9281557513 -1.7760248192 8.8567992161 -3.5571638378 -5.9277417472 
0.36637748374 -4.3127529363 2.2961324639 -4.1613017065 -9.4290095148 -9.9960758383 -8.2732858776 -9.8135710468 -9.5191924031 
-4.615183314 -8.9501763768 -8.8362640554 -5.7458738122 -1.2951668367 -8.8262497928 -1.3062696371 -9.8057337878 -7.5163420897 
-4.3739327373 -7.7423839158 -8.3870227801 -7.6043762481 -7.0184374492 -7.5029694719 -6.6184501448 -3.3590530947 -3.9819633357 
-2.4973271467 -8.4045916925 -9.2004402679 -2.320781602 -7.0439836336 -8.3931596013 -7.8555385265 -6.724269745 -7.4629277461 
-6.3220236434 -6.2382670724 -7.1138422841 -8.486125649 -9.8830726957 -9.8732053897 -7.7823808066 -7.3529946091 -8.7079410529 
-7.3402875224 -8.3971178559 -8.2616903484 -6.0387479986 -5.3530591594 0.030086565339 -4.6585059348 -6.4876297355 -1.1004390845 
-6.3505858884 -8.2329420571 -7.256546023 -7.9863818714 -6.9883454441 -9.7869350472 -6.2644144663 -9.1520216755 -9.8466877148 
-8.4780675171 -5.535873947 -6.4644462835 -7.8309978294 -8.4514535876 -7.5125649683 -6.5717467242 -6.1099484092 -9.6856785853 
-0.29411203649 -4.9668940122 -6.6679933772 -0.28433084095 4.9736062164 -8.8581480869 -7.2929873904 -4.2432420369 -7.2684063651 
-6.4489198458 -8.7958289599 -6.3254798387 -9.3782458047 -7.2240132705 -8.855817948 -8.2388076698 -7.3355915875 -8.7067620516 
-7.8421883782 -8.0977801465 -9.6141516808 -9.4248129381 -9.0004343667 -9.4671152887 -9.2595990477 -8.8092164031 -8.2761522543 
-8.5261553603 -8.9840694074 -9.2717800616 -9.6371693374 -9.34673659 -9.2718498821 -8.6963093875 -9.4201370996 -8.5114872555 
-6.2679661993 -8.6162534489 -8.1381481135 -7.5365100944 -7.9647946774 -8.3158460589 -6.2299083653 -7.5739898856 -8.4988048343 
-7.9148492157 -1.4149872874 -3.4682853994 -2.3162429655 -4.7064891519 -5.4211175376 -5.3891503807 -9.5996983008 -3.9353543285 
-8.4389763496 -2.6159917472 -0.66358730827 -8.3096813666 -8.7818824019 -8.0383362921 -8.5202261264 -8.0538602907 -6.7667219765 
-6.4740140403 -8.8369381285 -9.9570191687 -7.5083720661 -6.5867908813 -8.6822106687 -8.5011073096 -8.3608096866 -8.5769829144 
-7.4652322821 -8.2819925456 -3.2978346497 2.6163833434 -0.47143843205 -4.4158466521 2.1861611984 -8.1622259755 -4.7942717286 
-7.9622148896 -4.7366196219 -3.290710832 -7.6826391396 8.1706994701 -7.3827062529 0.31887781985 2.4493626463 9.73190883 
-7.0262631732 1.1800071786 2.3024585275 -4.7897180648 -3.6293780109 -2.272919878 -5.4099888453 -3.1223305595 1.1142006674 
-1.6397385347 -1.9936761796 1.1059345552 5.6608181938 1.9390740108 -4.4246219603 -7.2894953532 -1.9016105125 9.030332497 
4.2605242378 1.9030885885 1.5731888155 -1.6449690624 -7.7259037896 -3.0101159721 -9.5606272257 -9.1479249159 -8.2038628054 
-9.3430286592 -2.4522830871 -7.8674495015 -5.0748032918 -2.1318827589 -4.7091448218 -8.5242650675 -9.6599929321 -8.8957753751 
-7.4932062259 -9.1411898014 -7.545533128 -9.3257050918 -7.3435961807 -9.6415945318 -6.1989188534 -9.0777546973 -6.2104863784 
-8.4455578259 -8.3622697941 -6.2880707847 -9.0991154043 -8.7716828421 -8.7868684958 -7.7930822794 -7.9563226745 -9.4142409391 
-8.4976145547 -8.5386091694 -8.0125548041 -7.6346702831 -8.2931549534 -9.9278254011 -9.2997974146 -0.34469560573 -5.0683353002 
-1.408521558 0.8830325495 -7.6844984592 2.4005953318 -3.850245765 -9.8844660093 4.3200610434 4.7976863845 4.7647760318 
-4.7021813557 -1.5439047889 -3.0979964783 1.9081856085 -8.5042982821 -0.054150570695 -5.8109181858 -5.9128081973 -9.2413784051 
-6.5175304924 -9.8015821135 -9.3122005859 -8.2806033651 -7.6559634889 -9.5476791247 -7.4354119892 -8.8923058649 -6.3065523692 
-9.4740982301 -6.6298902916 2.8671684173 1.394578311 -8.9416275176 -1.6076332926 -1.2083277206 5.1265120135 2.4847654748 
-7.9883154362 3.8975163147 -8.1174548712 -7.6594305554 4.5744553369 7.2817005924 -0.90543455915 -7.8430078766 -1.1201841774 
-7.5195710925 -7.0265560074 -9.5792866472 -9.5501691717 -9.1300913335 2.934713553 -4.802789208 -5.3879170267 8.1990030477 
-3.1777804167 3.7730816604 -5.9320140626 -3.4085048203 -9.6179811579 -7.9418603357 -9.6492039705 -2.6186111282 -5.8406115842 
-7.8374249379 -3.4749086155 -6.9310607732 -9.1577733395 -6.8162106865 -8.7354259137 -6.8582887438 -5.3924182653 -9.1535531946 
-1.1303360214 -6.6599114857 -9.4027125139 4.1354395482 -9.1050410432 -9.3898772244 -9.1668575492 8.9328188727 9.3289286478 
-9.098243498 -2.4568591644 3.1971182561 -6.92055179 -9.1695507734 -9.1566124374 -9.4118170354 -9.1883652217 2.6425504537 
-9.7574225383 -9.1761599131 -9.8817105196 -6.8127660103 -9.1736512021 -8.9897308079 -8.7735696543 -8.9391433613 -7.9844279982 
-9.1959342536 -8.9452696407 -8.2927960251 -0.32768202203 -9.6296438598 -9.2535113722 -4.9492765474 -4.1838852355 -7.3650248041 
-9.696719572 1.1393279929 -9.5439412367 4.7527460752 -2.6082855578 -7.8657120574 6.1814288539 -5.9817053115 6.1121820657 
-9.0974547492 -5.8124355302 4.4070336421 -0.18264999787 -6.1331780316 -8.1047332428 -9.0086266375 -9.8137320348 -8.0280259977 
1.6673799907 -3.2872173112 1.7682728273 -5.5857951928 -6.0348678123 -8.6085024831 -3.7999598185 -2.8665139854 -7.816645925 
-7.8703694271 -1.6893959794 -9.0702147833 -6.2111073964 -1.3016134715 5.9411490209 -6.4308043077 -7.0744761113 -8.4738822459 
-7.7358239089 -4.5979318367 -9.2295492009 -7.0759440168 -5.0121846829 -8.9238165273 -5.0461221203 -6.6466421859 -8.8468630916 
-7.5830959586 8.1235042917 7.0691208827 7.0812402297 -4.4397870635 -3.1684142024 0.47473611142 -8.2959566185 -3.162035904 
-2.6578872355 1.447968213 0.53946007042 -2.3012412345 -8.1350185152 -6.2579351876 -9.4447684893 5.8382890044 3.2283653235 
-1.1310372598 8.0514956445 -5.6566240105 -4.5085668548 1.0136307318 3.4684048957 -6.141555121 6.2335245815 7.2575451304 
4.3348537609 1.601232131 6.1505283421 8.1924605571 8.0604319731 6.6020090128 -0.87980010052 6.8390879882 7.3457781504 
9.7964898957 8.9219997023 7.2030574043 9.6941506632 8.3235297435 8.6564962523 9.8677358584 9.9796520318 7.8480459353 
8.9557960596 8.9229077053 8.0063091157 8.257159995 6.8143765939 9.2982046976 7.2151025184 6.8517687568 3.3471088085 
7.4547177986 4.6866621426 9.2051890826 4.0670660575 -0.66090663564 9.7089267419 6.5884814899 8.9191156343 9.5966037011 
8.3098881205 8.6989516937 7.8591115248 7.8116446358 3.2137805063 9.1183546636 8.6006749705 5.4399841205 8.7455509355 
9.6345875346 9.0464375504 7.4965080619 9.1983487826 8.2800356552 9.1762219421 9.2568024776 7.6810074099 9.1453343716 
9.0893038014 7.6434214178 7.8897092104 4.3914416505 7.8111870181 9.9151205902 9.951696609 9.9268480483 -0.062662428886 
8.1366423257 9.1422513243 8.8138331175 -0.85293898201 5.6283420654 7.8385414343 9.8041595828 5.4597612656 9.9812323467 
9.9347584974 6.3560586055 9.6123094043 9.6656380895 8.2455353148 7.3847635813 8.4851100141 9.9271454715 9.7255081009 
9.9294968477 9.2961905426 9.712063822 9.6051002229 9.548010217 7.7592447186 9.7653650806 9.8363777983 8.9267661126 
7.877302463 8.490409746 7.9438115004 9.8912464348 9.7081690467 9.2904278965 9.7068075867 8.354786713 9.1058494952 
9.6408772853 8.0984771611 9.3455238267 8.2347714983 7.8328102107 9.4761725839 8.9814581385 9.5965980951 8.6924144462 
8.5177462024 6.4093755658 -0.91992269947 0.11113297345 6.0660521104 8.7116902421 5.5779036224 8.1304624542 8.4437659762 
6.8119139849 8.2407504784 9.2268208086 6.974266421 8.8799195626 7.2405812633 5.4078012301 9.0421556411 4.3191625459 
9.0072916639 9.1611473138 8.2478416484 8.2059230275 9.4768541452 9.6860552709 8.2504671819 7.3235521347 7.9845622303 
8.4103891193 9.572542336 8.1263302613 8.4052031753 8.2460182025 9.9086581553 9.5577021075 8.4951844897 9.9474226593 
7.2702999471 8.5941410327 7.2434471647 9.5713445391 9.3601570195 9.9381266945 9.7175786259 9.2262874164 9.786624695 
9.6755524998 9.3252569108 7.9428297064 7.919698255 8.4956065217 8.0224945869 7.8249061749 8.1399005475 6.4263559485 
7.8363469645 8.1290399104 7.273980323 9.4460822732 8.9354519857 7.0191259125 7.985720061 8.2183227186 9.0109264264 
9.0103706785 8.1538282717 6.9023048534 7.7648432954 9.9154885678 9.2372896359 9.0937611442 8.6593175107 4.8937112634 
-4.5210835079 5.8751051516 5.4774565744 5.4203953395 3.0685332045 9.7345273179 6.3793726906 9.9134453514 3.9503020339 