# vtk DataFile Version 5.1
vtk output
ASCII
DATASET POLYDATA
POINTS 1244 float
-0.884227 -1.67592 -1.66814 -2.02605 -1.84828 12.2541 -2.06414 11.8352 -1.67446 
-1.29239 11.4288 12.0263 11.8871 -1.61622 -0.808446 11.0181 -0.370724 12.159 
10.5163 9.79621 -0.667441 11.2736 12.3548 11.6897 -1.19135 -1.42384 -0.220248 
-1.63295 -1.41209 1.36456 -1.68512 -1.47093 2.59255 -1.30759 -1.30269 4.03132 
-1.80841 -2.03949 5.36698 -1.05748 -1.27961 6.65334 -1.25838 -1.77529 8.22852 
-1.33416 -2.088 9.3677 -1.51826 -1.72277 10.8671 -0.803027 -0.332974 -1.02669 
-1.08862 0.524961 -0.938835 -1.19955 1.85599 -0.941667 -1.11264 3.45238 -0.957375 
-1.86023 4.55888 -1.8621 -0.899211 5.81645 -1.71577 -1.03497 7.58252 -2.04603 
-2.3329 8.68015 -1.2467 -2.53922 10.1705 -1.71733 -1.47933 12.5256 -0.489561 
-2.31339 12.1489 0.758857 -2.46427 11.1647 2.25889 -3.40318 10.5546 3.47354 
-3.04227 9.57407 4.95755 -3.19412 10.8392 6.26657 -2.37088 11.7513 7.73759 
-1.67357 12.3093 9.21409 -2.55157 11.3739 10.3183 -2.31363 -0.354556 11.7129 
-1.91357 1.06759 10.9451 -1.46556 1.95034 10.6337 -1.21553 3.48678 10.7182 
-1.14288 4.87926 11.1857 -1.32861 6.21882 11.6867 -2.03182 7.5512 11.3668 
-2.55904 8.67304 11.0618 -1.7222 9.77733 11.8137 12.0094 -1.88057 0.616123 
12.0249 -2.41137 2.26233 9.90792 -2.67144 1.5301 8.40242 -3.35537 2.99651 
9.86171 -3.24222 4.23981 9.34406 -2.51212 5.58812 9.24045 -1.49537 6.3177 
10.8741 -2.26403 9.21601 12.0791 -2.45014 10.3257 11.7312 -0.381936 -1.6483 
10.9149 1.10466 -1.79522 10.928 2.26525 -1.397 11.1271 3.6356 -1.2807 
10.4879 4.7729 -2.037 10.3593 6.13382 -1.65327 10.8911 6.84399 -1.1438 
11.7812 8.72502 -1.53933 12.4842 9.9654 -2.23364 12.8831 11.1963 -0.267205 
9.28173 10.0855 0.696688 7.7857 7.82137 1.86101 6.87386 6.98943 4.16917 
10.8291 5.96459 5.41022 7.05817 8.25063 5.0798 7.31024 7.11845 7.56227 
8.21908 9.98426 8.12322 11.8263 12.6004 9.99801 11.9863 0.420896 11.6307 
11.564 1.63701 11.5368 11.1172 2.4391 11.2497 10.936 3.63292 10.7911 
11.1845 4.94768 11.0505 10.8068 6.25322 10.2121 10.507 7.4538 10.9408 
10.7688 8.92208 10.5954 11.0445 10.4183 11.3141 0.42612 -1.86518 -2.08184 
1.64271 -1.83415 -2.67259 2.54808 -1.15631 -1.16719 3.53917 -2.79067 -2.09742 
5.06276 -2.2183 -1.73481 6.13996 -1.52515 -1.3705 7.4788 -0.908596 -1.13376 
8.91774 -1.62911 -1.42124 10.2116 -1.30912 -0.854694 -0.486741 -0.808932 12.2006 
1.01468 -1.7964 12.0009 3.01457 -1.04578 11.6611 5.33839 -0.43133 11.8288 
5.54173 -3.14387 12.5225 4.04403 -2.41945 9.91676 6.23828 -2.82475 10.4391 
7.79855 -1.90822 12.4543 9.5592 -2.71473 12.5795 -0.595765 11.7571 -1.79303 
0.963442 11.126 -2.35094 2.4771 11.0538 -2.63005 3.90139 10.1829 -2.5681 
5.25275 11.0032 -3.20482 6.42282 10.33 -2.59439 7.86865 11.3075 -2.49953 
9.66224 11.3867 -2.57049 10.5306 12.4298 -2.00983 0.519974 11.492 11.6646 
2.47511 11.7439 11.5509 4.20885 10.6607 11.1154 4.95063 8.9287 12.2682 
5.15895 10.844 13.3648 5.12512 7.49133 12.3038 7.03965 9.14149 9.66633 
7.76893 12.9278 11.2281 9.30096 11.8661 11.7991 -1.34361 -0.403392 5.00783 
-1.40068 -0.460077 1.53723 -0.526623 5.91633 0.640326 0.91813 9.31012 3.1501 
-0.886083 8.46754 -0.110549 0.661853 5.89696 7.87677 -0.922425 8.7333 10.0256 
-0.260533 9.09818 5.50003 -0.597068 -0.834421 8.41932 -1.36529 3.10833 9.88733 
-0.906139 3.09192 -0.104646 1.10685 6.44258 6.72186 1.21684 3.74 4.27389 
0.723553 2.84014 5.9425 -1.28578 -0.450661 9.85115 -1.01682 -0.686655 6.39175 
-1.63082 -0.611545 3.51331 -1.33452 -0.553303 -0.313569 -0.415753 4.55443 9.17145 
-0.617486 5.55187 10.3241 -0.823156 6.70541 9.82232 2.05161 5.80873 6.24139 
0.458349 7.95489 7.79838 -0.958942 10.008 8.82238 -0.736025 10.6669 7.85306 
-1.67864 8.58659 5.55344 -0.603835 4.41935 0.828622 -1.03033 5.60367 -1.13756 
0.955677 6.81998 3.36115 0.0403345 7.22415 0.653136 0.408718 8.27657 1.64836 
-1.87205 10.3332 4.19721 -0.973614 10.7982 1.96883 -0.648471 10.5792 0.62701 
0.678875 6.72132 3.81658 -1.45537 6.16025 3.1806 -1.19851 4.32273 3.99984 
0.0551358 7.65599 3.7593 -1.93101 6.92275 5.25798 -0.404781 3.4528 2.40849 
0.121208 2.52623 1.33906 -0.822411 1.19626 0.896897 -0.184512 1.38908 2.60465 
-1.28156 1.89207 4.10803 -0.0563018 4.34011 7.0956 -0.19314 2.79543 8.14177 
0.0315882 1.19019 5.7691 -0.27482 1.03057 7.36054 -0.936476 1.2556 8.95875 
1.04085 3.11112 3.47719 -0.897755 4.52987 4.99848 -2.08637 3.81839 5.93002 
-1.01052 -0.251578 9.11725 -0.841792 -0.539003 7.32186 -1.20325 -0.885848 5.56414 
-1.45703 -0.758038 4.45813 -1.43356 -0.781187 2.3103 -1.21316 -0.267131 0.640761 
-0.845585 3.96706 9.64365 -0.858633 4.51182 10.2895 -0.406646 5.28873 9.68009 
-0.0246158 5.18832 8.38379 -0.188605 5.75443 8.90663 0.404302 6.26469 8.68184 
1.16629 6.89256 7.31562 0.281767 7.05254 9.38062 -0.754466 7.57654 9.47074 
0.0147958 7.70956 8.65346 -0.257287 8.39063 9.07235 1.09783 6.93372 7.34754 
1.26775 7.16501 4.90666 1.09602 8.23938 6.64688 -0.534655 8.92567 9.35197 
-2.04856 10.1912 10.3526 0.378881 9.9523 6.79083 -1.41986 9.99375 7.31121 
-2.02837 11.2908 6.84121 -0.810177 10.5079 8.29048 0.224846 9.33899 7.63847 
0.0332707 8.87991 8.17318 -1.3975 7.26821 10.6629 -0.837253 6.19372 10.2747 
-0.810811 3.90758 -0.0348086 -1.08912 4.52824 -0.340579 -0.426854 4.86621 1.62131 
-0.794552 5.05626 0.247027 -0.453153 5.70736 -0.102188 0.443253 6.47291 2.30868 
-0.0201504 6.48545 1.10375 0.418306 7.13924 1.85704 0.974565 7.72782 3.43016 
0.627079 7.59422 2.45866 0.538488 8.41279 2.57921 0.0385888 7.73998 1.23018 
-0.586724 7.49074 -0.205086 -0.27173 8.35385 0.661331 0.316011 9.7715 4.25419 
-0.0613941 10.0752 2.84577 -0.598995 10.3989 3.19932 -0.715788 9.25625 0.285827 
-0.959724 10.3574 0.0583316 -0.457806 10.0501 1.56545 -0.113475 9.2252 1.14388 
0.162508 9.3239 2.0914 -0.397627 6.99995 -0.492865 -0.433183 6.51155 -0.20156 
-1.64648 8.30874 4.78268 -0.7649 9.10587 3.85918 0.98268 8.16347 5.16834 
-0.450141 7.71844 5.29277 -2.18147 7.81551 4.43261 0.115886 8.03801 5.53367 
1.61077 6.332 4.95357 0.264681 5.69814 3.57298 0.0904346 5.40349 1.64794 
-0.269169 4.89998 5.61214 1.22323 7.59629 4.42403 1.62421 5.76236 3.82933 
-0.326491 5.50466 6.12682 1.89839 7.86617 7.43979 -1.99371 4.78986 4.84761 
1.17865 5.90245 6.02058 -1.705 7.23184 3.12275 -0.472111 7.95216 5.92525 
-0.441577 6.25177 7.05306 -2.11382 8.4818 5.71033 0.929918 7.8368 6.78839 
0.0540128 5.429 5.84764 -0.956738 5.11742 2.49123 -0.360549 4.10016 1.79771 
-0.317128 3.5274 1.16896 -0.711208 2.93228 0.620921 0.101685 3.11854 2.223 
-0.0476498 3.86574 3.32176 0.782288 2.83053 3.17722 -0.59968 2.29149 -0.0809686 
-0.793318 1.17778 0.129527 -0.92345 0.48106 0.21739 -0.978629 0.243755 1.43912 
0.555088 1.89887 3.27088 -0.907043 2.98344 3.70006 -1.05404 0.541255 3.39557 
-0.820707 0.552441 2.26997 -1.35405 -0.118213 2.83221 -1.52147 0.511344 3.95979 
-1.09233 0.618213 4.60065 -0.565923 1.3113 1.65902 0.0690778 2.06989 2.11123 
-0.476148 1.82797 0.975151 -0.345608 5.10325 7.63618 -0.206847 4.3595 8.19555 
-0.245719 3.4111 6.89443 -0.271796 3.50963 7.83511 0.0578011 2.66362 6.87324 
-0.364949 3.65784 8.88478 -0.790893 2.96162 9.07282 0.333153 1.8916 6.0396 
0.0833194 1.92324 6.78094 -0.0824412 0.827248 6.63272 -0.940739 0.541352 5.47562 
-0.553813 0.190121 6.0079 -0.234448 -0.0302185 6.85791 -0.644791 0.180767 7.93556 
-0.834177 2.15336 9.54763 -1.14204 1.32893 9.84061 -0.712307 0.566091 8.83738 
-1.24242 0.441437 9.85598 -0.262424 1.26565 8.22392 -0.463239 2.02105 8.59259 
0.115626 2.03729 7.77241 -0.379318 1.21825 4.96382 0.804139 2.12874 5.2917 
0.872432 2.85962 5.07121 -0.375676 2.14175 4.65007 -0.0763718 4.396 2.39723 
-0.244038 3.88731 6.53867 -0.701117 4.69495 6.73623 -1.10663 5.57099 6.52101 
-1.26092 5.15669 5.46515 -1.48681 5.0315 2.7805 -0.0909491 4.99793 5.71988 
-0.321591 5.38712 3.56551 0.965384 3.76198 5.99505 -1.28299 5.95926 5.79737 
-1.84208 5.83884 3.39641 -0.530976 3.19033 2.40842 -0.346481 1.9009 3.06035 
-0.0782929 3.87317 5.56557 9.71599 -1.49269 4.79495 10.7069 -0.706279 1.82747 
9.78779 5.82817 1.64517 11.4449 9.14156 3.92485 10.2945 8.43703 -0.167361 
9.69691 6.13336 8.38804 10.868 8.86476 9.91576 11.0126 10.8626 5.60045 
9.81827 -0.53809 7.67601 11.2974 3.1281 9.92446 10.493 3.01219 -0.274635 
9.29304 7.19262 3.2158 9.7715 2.8925 3.46233 9.67224 5.10444 6.72771 
10.5409 -1.25618 10.314 9.19461 -0.617543 6.23439 8.33653 -1.22158 3.3225 
11.0003 -0.218747 0.229185 10.232 4.2014 9.23859 10.6328 5.68164 10.03 
10.0208 7.16223 8.67573 8.74846 7.51901 6.43367 10.7325 8.89857 7.53449 
10.7815 10.2817 8.57113 10.0605 10.0429 8.81327 10.639 10.6338 7.30004 
9.90471 4.41707 0.708504 10.0722 5.70127 -0.452419 9.68639 6.90229 2.60585 
9.6131 7.21317 0.75643 8.99326 8.79844 1.75944 7.39276 9.99066 3.32988 
8.32128 9.66227 2.62437 10.1583 10.1046 1.17672 10.6615 7.23688 2.99781 
9.08028 8.02336 4.67242 10.5076 5.45992 4.08921 11.4179 6.76959 7.93397 
10.4477 4.79399 5.85229 9.83789 4.48571 2.36885 9.75488 2.83136 1.36385 
10.072 1.30976 0.61268 9.33038 1.19178 2.3115 9.7851 1.08978 3.94355 
7.2826 3.64546 7.13447 11.2491 2.47912 7.5341 9.40547 1.06222 5.72687 
9.23149 1.64294 7.18928 10.3851 1.17019 9.15551 10.1409 2.54427 4.96592 
7.95887 5.39156 6.31568 9.69914 4.76353 4.32055 10.0065 -0.209505 8.48005 
9.5923 -0.585067 7.10759 9.56539 -0.814662 5.54402 9.50873 -0.760651 4.30721 
9.59613 -0.152677 2.7273 10.7263 -0.196483 1.02684 10.8752 3.50827 9.72291 
10.685 4.28054 10.136 10.4945 4.94733 9.60336 9.60565 5.13238 9.00962 
10.2082 5.99995 9.24494 9.70991 6.73586 8.1986 9.13565 6.55455 7.09217 
9.55562 7.22435 7.39712 10.62 7.99677 9.74069 9.99861 7.70001 8.70642 
10.5653 8.34412 8.76757 10.163 7.59407 7.84263 8.66684 8.79107 5.73581 
10.2876 8.3257 4.68105 10.5836 9.00045 9.30227 10.9377 9.87656 9.63947 
10.7976 7.6989 8.60147 7.27897 9.2176 6.82717 8.9983 6.16094 6.35886 
10.828 12.3488 7.57979 11.463 10.1638 6.2136 10.7008 9.63176 8.33218 
11.3372 7.55984 10.0841 10.6246 6.66439 9.45099 10.4773 3.77759 0.0619722 
10.3303 4.38087 -0.495905 9.92813 5.0475 1.12522 10.2042 5.03545 -0.267089 
[...]
CELL_DATA 2484
SCALARS scalars double
LOOKUP_TABLE default
3.7768509573 -1.0989288136 -1.6275950077 -1.3638154556 6.507443422 3.8909247297 0.1419304432 1.475730517 4.1187318045 
3.392406354 2.7716494082 -3.4721727051 -2.3265430108 2.6579680785 3.3383635189 2.7313269655 -1.4256438616 -1.7796778781 
2.9313665939 1.1524084047 2.275804551 0.12749973301 3.3622975101 -1.5832543852 1.53970518 3.7029589001 5.0117281045 
2.3764922765 2.1337778173 -0.42965974563 3.1565757753 -0.18077128996 2.5227085805 1.6881785498 2.1352587631 2.2621162251 
2.3124760872 5.5100809105 3.6750486058 2.1483165002 -2.2279481451 1.7767478428 -0.60104207897 1.1947900549 -5.7692339982 
-2.7858147528 -6.4565538542 -0.40680591842 -2.870421935 -4.1066935501 -7.472091774 -6.0150615702 1.2916176223 -5.0958835969 
7.030801171 -7.4497229706 -3.0718155045 -3.4790531784 2.0993338001 -8.5488424294 -8.7192167263 -2.8621433815 4.343204344 
-7.0346637386 -4.4243876426 -8.6944077533 -8.0890562694 -0.38257924601 -4.6521076095 -3.3089835462 -3.0275508331 -3.5299144522 
-2.0008252903 -3.2687930679 -4.886927553 -2.3677867667 -1.5818681524 -2.3903943686 -1.9953088438 -3.5425657081 -5.1996103028 
-3.4680494312 3.080332574 -1.3292886193 -4.767666801 -4.7180183832 5.6996634536 -3.2899833804 5.5688685242 0.60373116365 
-3.2941820388 -3.5270325164 -3.1455101054 -4.9822076822 -4.5696933546 0.55051305078 -2.3160638989 -2.3101545837 -2.0682753956 
-0.60963291098 -1.4657779463 5.7600218875 5.6067483241 6.0360722974 -0.053510039287 4.4440858435 0.798303479 0.88958565391 
4.7016789097 2.1616456736 2.6153233343 2.0521148119 -0.060710493871 0.55810803551 -1.2888414241 -1.5172742072 -4.7215963975 
1.1692459111 -2.9077448585 -0.79673030448 2.4954218242 -3.0096520541 -0.099729072496 -1.3576153386 -7.8888224636 -9.1066172582 
-8.2325665695 -8.4452732644 -8.0699809514 -9.3631387069 -8.5729011605 -9.8561777268 -0.86251122923 -1.501689976 1.9552035711 
-0.27544401153 -4.1634993755 -0.7943443249 -0.87372497533 -6.6344639208 -6.178923442 -1.0518435825 -7.8389070168 -1.3452334008 
-1.5707825529 -1.6449204491 -5.5865612379 -2.9454306993 -3.0849290747 -3.4845374071 -3.3529693045 -6.0173042665 -3.7500807759 
-4.9118054701 -5.216947755 -5.5002915445 -7.5827468229 1.9305084026 2.5606965405 0.80908074962 7.536737167 0.60968488297 
5.4279123415 2.4781112997 -0.0013408816173 1.6640453289 -2.6151085654 -7.3422625673 3.6005288776 -5.876239409 -2.9582064908 
-4.8908008618 4.2140301213 -2.7727307657 -7.0007055012 8.8021628667 -8.0414574463 7.0074607587 -4.9098363934 -8.1223292048 
-2.8743613076 -7.2412789882 -0.97428757234 -0.094669742589 5.8013124167 -5.9738033085 5.4132621551 -0.31680816383 7.2080763183 
2.8937851569 5.750010338 -8.8813532298 -1.6977320153 -0.76273733731 7.4040001602 -7.4060998381 5.2752182721 8.1174922418 
1.3913772624 -5.2837133852 2.417293137 6.8868147956 5.8090203418 4.9740258373 9.4832704812 -5.4957486979 7.3311926649 
4.3090115661 5.8877485937 5.1669053235 1.922284868 -4.6609976912 0.042656833552 3.7383223736 -7.3100969961 -1.5798336944 
-7.2558737127 2.0744847883 4.1007039644 1.5271540093 -8.9510472099 -0.9887923405 0.81438996605 -2.9676591019 8.6771933144 
1.0207706939 3.608340774 5.4432958529 -9.5979683616 2.1977727795 -4.2937833171 -0.30227060629 -2.7765441572 -1.8336819261 
-1.7426678323 0.88169812051 -1.8441765077 1.9491756087 -7.973302543 -5.6275087812 -5.2724313978 -6.1894180673 -3.5943905709 
-5.3806277145 -2.4672387816 -3.28410848 -0.74245376452 1.6356732733 -2.0772383997 1.9647549267 1.5362632332 3.6539817325 
5.0567291563 3.7624117533 1.7837618978 -3.2443186524 4.5535645795 5.1008619857 1.561229763 7.6332420895 1.1316180031 
1.3262566857 6.1077409587 4.1710649109 2.6469595685 3.8154689352 0.86545578539 0.22445212007 2.5243824896 1.6564257362 
1.9097225186 1.9849371844 5.6972187435 6.61265016 5.1134505988 5.0445377583 3.0021782485 3.5174566174 5.5592000828 
2.4960969196 4.7896754527 2.5484525435 4.3223338494 1.1932794755 -3.4786649805 -1.9987423867 5.4244333281 4.4696754937 
5.0933522849 5.122840772 7.4933894385 -2.7254356774 2.6201811823 1.1523223691 2.0972383779 -2.8855539724 -1.8080603145 
-3.7652543163 1.3599098969 3.2186133585 2.914476971 2.967731441 -1.3809572567 0.12296791049 1.3299394918 1.1978184591 
3.3372898792 3.8206965496 1.8206503455 1.8391862751 4.7762875749 1.8988660797 4.9173829923 1.760712031 1.4360901121 
7.6628537764 0.65929497789 5.3719204091 5.6021127131 0.96002122901 5.2121270857 2.6046106778 5.0109975825 2.637145368 
-0.88607446312 1.1302376667 -1.9651217625 1.0274944797 0.47503281478 1.7181936183 0.4508940704 1.0525668647 -0.68465024337 
-3.2206091574 0.91309654327 -1.1931272751 3.5061926756 3.7704597693 3.4749857727 -2.6421415113 -0.19067027325 -1.4992034578 
3.6574676191 -3.0750313369 0.43628774011 -0.3903216829 -0.51223611405 3.9316694941 1.3210517609 0.63528906449 3.0476757388 
7.3744864614 2.1675943458 7.0523849126 4.8111024139 3.6326754913 0.64217816086 -0.88597453001 4.5125704492 6.9487460389 
-7.3696169509 7.0975055385 8.6810237018 2.7098571969 6.9489583398 2.8805560435 -3.9302274354 -0.78805901588 -5.1390241667 
-3.4615533472 -5.2486773566 3.6538914669 1.8345533232 2.4981460527 -5.5127567325 -3.6607683148 1.6950762196 -1.1191305555 
-3.1622988344 -5.7495036677 -0.14359108934 -3.4958448957 -8.4014089765 -8.5180358243 -2.27074157 -1.877647027 0.69293789463 
1.0538786438 6.7433100154 5.6115019149 -2.3012412198 5.0290074984 9.0777835931 1.4959408377 3.010213337 -4.908626606 
2.9136313585 -9.4849572417 1.1285614163 -9.8585059485 -4.7675725799 4.8459631493 6.0837104243 7.8633483749 -2.7317562378 
1.0161483242 -8.0614120923 -6.2526893378 -6.2570295163 -6.4787059347 -7.1693074547 -6.666774814 2.9956605362 -0.62735043445 
-2.6495610647 6.9408651033 4.4579304408 7.6300995306 2.1568996689 0.081519239633 0.57817031559 -0.99911166325 -1.0773173746 
0.73120628051 1.4330835839 1.3850978432 -0.84029740681 -2.8347416515 -4.4078090227 6.3051620153 5.4465872445 5.2293313506 
3.2848620859 5.1370986603 6.1806134893 1.1161682511 0.26935806094 -4.2776877273 2.3908273524 4.2853940151 7.0784527061 
2.8200170142 1.8880083909 0.90761934962 -3.8988129912 -1.4084167286 -0.97930312101 -0.85409600708 0.79793123504 -0.85594173063 
-1.5584974954 -2.7468795708 -1.5792617924 -3.5932184915 0.65141769773 -2.4544448684 -6.3898916295 -6.2292115775 -3.2010207244 
-4.1117384874 4.1213879267 -8.8949742901 -3.4733798148 -3.1386439888 0.58174572153 -8.9405339606 2.2826061972 -2.8178399968 
-2.5290184593 -3.9678830503 -3.2987957177 -2.7248215017 -1.1221933035 6.8905427027 2.6920687118 1.8427226385 -4.1850847987 
0.72613141673 0.1899789324 7.3912072003 5.6495512058 7.4700181441 -2.2567819099 -1.9195914381 -5.2687276267 -2.1720704904 
-5.2173951684 4.1717678809 -1.3467509122 -0.69505520618 2.654276165 -0.82112174391 -2.5395663233 -0.79198160083 0.39947724429 
0.53084267565 -3.0121209358 4.3887381258 0.36569226193 0.66860787883 -1.8288899527 -3.1598693056 -2.9973986237 -0.90993737171 
-1.8093395148 -3.7784294023 -1.251261986 -2.2462037145 4.8824394168 -1.6569084759 4.6545832554 5.8818845832 5.0234996027 
-1.636925162 0.5153652214 2.1329075154 0.57576328352 0.23871217672 1.412735648 2.2543689473 0.65745476664 -1.7713002303 
3.4929587397 -0.25138402812 -0.81518903008 -0.050858586782 -0.62184107643 -6.5188651388 -1.6796326353 -7.408230696 -0.13283716152 
3.90584673 1.5634400581 3.7485306897 5.6226220838 1.9990032075 -0.53112490891 1.1150486377 0.9331578465 3.2743195013 
2.8076962765 4.8379269585 2.9730529376 -2.0439118548 9.4707156987 -2.0926293901 -8.2445373902 4.6361765728 9.5310016018 
-9.6312464563 -4.3315693234 4.5403719531 -6.4892918216 6.7158532501 6.2590098289 -9.6617676177 3.9010905073 4.5959076801 
6.82873959 6.5262724525 9.8887206959 -8.3706956123 -4.9392995792 -6.1816715106 -6.9239999844 -4.7197490865 -3.2651545013 
6.6859040644 2.4460763889 2.0091362658 -3.6691183819 -6.6123319192 0.59910128696 0.40602167506 5.3470910817 3.3475720384 
-0.78941745954 -4.347170401 -6.7301467738 0.30381943213 1.5128564515 -0.81498644871 9.5356641172 3.683320984 1.2378835198 
1.6543593182 -8.1293466419 8.7707309025 -7.2141079163 -5.8539346227 1.3449779989 -1.5551647846 7.7918805961 5.7867615568 
-8.8787332429 -4.8699608425 -3.3288683432 -5.631900733 -2.851056549 -5.9026401995 0.89302788632 4.5042745171 7.9028789419 
7.5908606959 3.7541957285 8.3965660898 -7.7834697756 0.53618249694 7.7200483201 1.1434421986 4.9307753212 8.0891946184 
1.0279326324 7.7434555845 -1.4540699153 -3.2015013296 -2.537038559 4.2052526496 9.7643021495 -3.2091950193 -0.21310149882 
6.2203029991 -2.4777687327 -2.2267494771 8.0417081435 -0.040123388739 -5.6133489939 5.8236306517 6.7548582673 8.2435866805 
-0.99499838738 3.4823132531 -3.3349510127 -0.27750486562 6.8664300306 3.6678615942 -8.5240475135 8.1565295961 -5.0446374138 
-8.2279958642 -5.3102847368 -4.0743834109 -8.9239673045 1.908723924 2.2583973148 -0.24435010668 -0.47640222002 -0.18995965718 
2.4527508759 -1.2899181385 0.038163226695 0.15790098627 -2.8219522618 6.0945860808 3.0224986312 5.453038611 -0.072306131784 
-4.4777614548 -0.35177972467 -4.0407873625 -1.6417015976 1.9491906145 -0.52881095558 1.5094920969 3.4736280789 4.9282974934 
5.4846060291 5.5329997368 3.4643649419 4.8691703049 0.25290159911 4.9122507364 3.5503378423 -5.4072759753 -3.8424155299 
-5.4328664738 3.5927812268 4.4508864211 -2.5041669368 2.2402720184 -3.6439659995 -3.2486838082 0.20158454536 0.038920969267 
-5.1096187284 -0.51245000862 0.71038625451 1.1399627017 5.3657475044 1.0533463578 1.063699897 -0.49607518071 -3.3471188835 
-3.8816575109 -4.2548368508 -5.6924724113 -0.64928409839 -0.76965732752 -0.55884625026 -0.49714714094 -2.3908683355 -1.304619493 
6.2558812579 6.9692058796 -2.7125388579 -3.0165831975 2.4159587456 -2.1907375679 -0.58366464735 -2.3404325306 -6.9373311533 
1.6505728115 6.6041856391 -0.96790021628 5.9977902653 -2.1852791105 -0.36200213081 7.9176936933 9.3405304594 7.9260163609 
-1.7212267819 2.042083202 -1.3692966108 -0.75106085555 -0.41770413724 1.037416738 0.15479114783 1.3793897467 1.0623419734 
1.928825664 2.4840454679 2.2677039078 -0.38324991402 0.60762314164 -0.68357287378 0.75272385784 5.5057309665 -0.83389186333 
2.646862638 -0.80309228683 -3.8393254722 1.6896725846 1.3899169185 1.6946459371 -0.85112223277 -3.9357263429 2.4631574618 
-7.1608621184 -2.2776116547 -2.3843871622 -0.13422424094 -1.8021217014 -2.7407158367 -4.9788207846 -2.6079167448 -3.7800848868 
-1.3263282683 -5.335636829 -1.5027056982 -5.6611994544 -8.5312477694 5.0749852747 -5.0173038809 2.622759683 0.85730816003 
-0.29903226572 -1.0329353363 -1.0060699215 3.0957764422 -1.7156898789 -1.5437292972 0.86177884238 1.7965055412 -6.3336453071 
0.54150631551 -7.7361633366 -8.4406715947 2.8357701769 8.7786537064 6.2643819203 -2.1726376597 2.1923637544 0.4380382261 
2.1766054484 -8.8518717079 -2.2807138069 -4.9961389627 5.2770471612 -6.9193203671 -3.0165196511 -3.262384126 -5.6907734771 
-4.6916292786 -1.1461646384 -1.5652079397 -3.0474376581 -1.7767242989 4.8893916556 -3.4073025382 -6.9075036913 -5.9983799369 
8.1707161542 -1.2659626218 -9.9190307755 -1.7542392489 -3.9828999924 0.88719065045 -3.0110074966 -2.6347136276 2.7107842103 
-3.1183462334 2.9881752604 7.2858261291 -0.53593224893 3.8804316519 4.8938061771 4.7441781348 4.4394611322 -2.6665778789 
5.4043203735 -8.4518130115 -8.1047671907 -6.1926946148 9.70440483 0.13160339431 -2.4214913285 7.9619134191 9.483126032 
-0.77461451963 -6.5100626238 -8.1941783206 -7.8819690333 0.18032984549 4.8812557105 3.5094528591 6.6871304542 7.2148654284 
-8.4357029949 -0.77144830921 -1.8344645429 -4.3094112926 8.8371766652 9.0986329112 -8.501700153 -9.4134630288 -9.3956893335 
-9.8348717694 -9.4308408553 -8.5087649803 -2.5201017801 1.5268540158 -4.1624152303 -1.2642433365 -8.574277343 -6.8818733233 
8.4126475538 5.2639928234 -3.201786208 -0.24404825792 6.029043413 0.29489228508 7.4222353677 -3.1689588706 -2.0904014713 
0.25747252097 -6.2576800756 4.4334969557 -6.2934935812 -9.4420571468 -9.9073867717 -9.4363967165 -9.4152006229 -6.5658540988 
-3.5884814781 -5.0495336127 -4.2241780118 -7.6908928394 3.1623830262 -9.2485539157 3.1548561886 -9.7770612748 -7.6448718216 
-6.7778132573 -7.5166369866 -8.1788036132 -8.4565792542 -8.1982782713 -7.6428468506 -5.9950876745 -6.9034336785 -6.8980461983 
-8.7994937192 -8.3795102175 -9.5444699049 -7.9996398155 -4.0631813138 -6.003907584 -9.0720564418 -4.911742989 -8.0730507687 
-5.6808941521 -6.6472535121 -7.8747559379 -8.9169831091 -9.7991586613 -9.4078709996 -8.7944639832 -8.6701507056 -8.1319265626 
-8.6730720925 -7.7970090011 -9.8852605937 -8.7408667444 -6.8000543533 -0.85320835563 -8.3029112786 -7.9745012405 -0.50594657437 
-9.7001325706 -9.7532748131 -8.5683761945 -8.7412878161 -7.2134551585 -4.2723984063 -6.959371992 -8.5054901498 -7.7032094261 
-8.2236553082 -9.360602812 -9.0575846657 -8.1868942335 -7.6064612476 -8.6212550119 -8.3269565574 -8.5752861977 -8.7232510667 
-8.781879291 2.02305682 -6.9162047576 -3.8103660507 0.86997875058 -3.4169752091 -5.1527719596 -4.047940463 -8.2852834604 
-8.7873886248 -8.0019907092 -8.005449617 -5.136501948 -8.5533310539 -8.890313946 -8.6580330226 -9.8236014056 -7.9287421212 
-6.5800618374 -6.5309279203 -8.7836254851 -8.1399064308 -9.6846486003 -9.4957476673 -9.4148614982 -9.2704763465 -8.5467065873 
-9.1564312004 -8.8495412646 -9.2604709696 -9.5095949961 -9.7607220875 -9.3970428089 -7.6336753956 -9.0777099934 -6.2167972378 
-9.5906730406 -6.0263735027 -8.395398727 -9.3208774986 -5.2692556107 -8.0594090142 -9.3263093389 -7.58026727 -7.3879115098 
-7.2059730155 -1.6366493218 -2.578358022 -3.7715889098 -5.4556567116 -6.265767612 -8.8468581437 -8.1162446161 -8.0841501891 
-7.5939788865 -3.571171945 -4.1041290783 -8.6668835096 -8.7490000018 -8.5260943648 -9.0588088856 -8.4227800552 -8.0916389569 
-9.8105295597 -4.7732250476 -9.7875846051 -6.9369493581 -7.1441227402 -7.6127115706 -7.2278198318 -0.44040261926 -8.1345613059 
-9.0705271523 -8.7556107138 -3.5449396276 1.3239888098 -0.63596191753 -3.3303001523 3.8847477576 -8.2784245226 -7.1595281961 
-7.758508827 -6.7826355126 -3.0811786406 -8.5710671675 6.9536185333 -7.9547082576 2.4102948193 5.9982999301 9.9748416531 
-5.8301274502 2.8295748204 1.9646138042 -6.1442540338 -3.1349652298 0.4834922807 -6.8501299961 -3.0935719846 4.1019337103 
-0.47231472404 -3.2076771209 -0.49705564675 6.7434199805 2.3978956416 -6.4915600291 -7.3599896485 0.57268460741 9.6525508193 
6.6915689519 -0.19034592025 2.2450186457 -7.279683595 -8.9927105231 -7.2091169268 -9.3234314772 -8.8835363284 -9.9339541927 
-9.3786363903 -1.0360057725 -8.9216376356 -7.2468152997 0.25441656165 -9.3720576893 -9.6287074419 -9.1535863132 -9.4430116692 
-9.9244140793 -9.2086402823 -6.9748468197 -8.8672048908 -9.3642192412 -8.024776862 -6.1730406091 -7.1705069712 -7.2721736489 
-8.9842308445 -9.8190097758 -8.9119182455 2.0690266196 -9.200784778 -9.5606520427 -9.1899755147 -9.1910551285 -9.7483807057 
-9.2974012496 -9.3668934391 -8.9973622897 -9.1170656737 -9.0977407005 -9.8455196222 -9.8985333617 -1.6725737952 -6.704822942 
-4.6872962706 -1.8061106953 -8.3035395798 1.3408436087 -2.7099541074 -9.9155995607 4.308960646 3.5103804065 3.4886481267 
-5.3107717731 -3.5271914134 -3.8151175795 4.4382958568 -8.9968364895 -1.8674399791 -7.248658838 -7.335111733 -6.5993581478 
-7.5702030415 -9.4107195068 -5.1267698582 -8.5681058177 -8.687686151 -8.5545205479 -8.5624911391 -8.6406988088 -8.297527905 
-7.6850631107 -7.9939973354 0.45292942651 1.3181596504 -8.9231854995 -1.5135406274 1.7710269588 7.0178431689 2.7360829224 
-8.1070151724 5.7983038963 -8.2748944188 -6.336305878 6.0648819161 7.5633998203 -0.36009661854 -8.0256075587 -0.67627130768 
-6.4411475757 -9.1457945918 -7.9857379939 -7.9218287807 -9.5301240819 0.8309821744 -5.1916471746 -5.9448912369 -9.805817752 
-2.3875887807 0.46639174332 -6.1927384343 -4.0230322395 -8.7543100904 -9.7491225307 -9.0988282827 -0.75708604238 -7.0148832811 
-7.3832049238 -3.2297073497 -5.5226642663 -6.7764490721 -7.5738210148 -6.3132951602 -7.5318498048 -6.9085361718 -6.6023282489 
-4.7890677018 -4.8895954878 -8.5677925688 -3.6150115552 -8.5719554889 -9.4002878979 -8.4097638512 8.521670902 8.9170735575 
-9.0121946091 -2.6049464486 -7.9027512188 -7.7791606803 -7.0753675627 -4.6483818906 -8.8315572359 -4.993103804 1.1741947413 
-7.0397334774 -9.883168286 -9.2832689487 -8.2657104594 -5.3274552038 -8.3492764615 -8.3246396307 -8.9268926958 -6.6135858576 
-8.9711435841 -9.0981380303 -6.200884183 -9.6515983921 -6.7756148933 -4.3379721955 -8.6960544529 -2.4398498855 -9.7301173878 
-9.7903739099 2.2954549945 -9.6744241505 5.2013332725 -2.4407441389 -6.1694535076 8.1580723279 -4.9323977016 7.5448844891 
-8.9850118483 -6.6680434258 4.0423327279 1.3660896178 -6.4521298639 -7.5444847263 -7.680545894 -6.4970690589 -9.2932006684 
5.2961485934 -2.744334046 5.6872292812 -9.2920461029 -8.9143063627 -9.1417480785 -8.3770153713 -5.7029488068 -8.7117780343 
-5.5226150299 -3.6295779017 -9.932885222 -9.4131876353 5.9229374048 8.5833017252 -7.2883984002 -8.487247983 -7.2930219999 
-7.6809078402 -5.5734483051 -8.5205181495 -7.0470961649 -5.166280885 -9.1853659925 -1.7381203678 -8.6595501636 -9.4561025777 
-8.0341758801 7.210332871 7.065392306 7.0232114349 -2.4174074417 -2.5923853626 -0.53910372429 -8.5842791755 -2.5361131838 
-2.4667247411 2.0961776981 0.2304790624 -4.2300033417 -8.3432575036 -6.37869265 -9.5173442982 3.0834446155 3.9955274542 
-0.50592474189 7.957923196 -6.5498510757 -4.4375468729 1.0127911809 2.4186113456 -5.2548524433 3.8400132498 5.9953898248 
4.2956899318 9.1418440599 4.8709701445 7.9944066674 9.4679250026 3.8515050868 -0.47804680595 6.0699987347 5.7712335116 
8.4817289669 9.1341992312 9.1778114046 9.4187009206 7.7370654059 7.3574157389 9.8205714895 8.8618060276 7.8818698994 
8.7014287297 9.2259636252 7.6952711741 9.4291670356 8.1047737654 9.8348140643 8.5166382701 8.0019875091 7.081146486 
7.5535190198 7.2849094069 9.8135930403 7.7711711686 9.7934563558 8.5860502589 8.5120158098 8.3360487463 7.9112090654 
7.5453980476 8.3157658547 7.5002933455 7.5408461066 0.52782661886 9.413747992 8.7592645017 4.6254989756 9.3641045245 
9.9371801826 9.4690749163 9.8417008635 8.3423429682 7.161820692 8.1769607956 8.0528728146 9.7691453948 8.8588844908 
8.4799936981 7.3442713545 8.0738480473 3.2233593202 9.2221540846 8.2931729847 5.7630528197 6.9665414811 -0.94799534243 
5.0362967214 9.3791416427 9.52872526 -2.7860556001 3.9772531944 6.8101878543 9.9520840271 8.8049656166 9.7965674215 
9.7566933371 9.488200001 8.8391188122 8.8131341713 8.7651356068 8.1159614117 9.0479876749 9.8525461656 9.2951898979 
9.6433509237 6.163506902 9.3118010025 6.6651573454 9.1133181881 8.5044764087 9.2641396891 9.141906519 9.6179873113 
9.102711433 7.5787667544 9.9797871461 9.1955191082 7.3836849272 9.30490396 7.4072673723 9.216862898 7.901539966 
8.775788573 8.6375242982 8.3925731197 8.1306100727 8.0237985985 8.5636014139 8.4174222894 9.3473088191 8.2596259415 
7.9946354333 7.3935188493 2.8100203069 2.8643436446 7.2231022355 7.3429031849 7.0402426019 7.5500493627 8.2171234921 
4.9403116504 8.3654006626 8.7571747556 9.0774245024 8.4503731441 9.9039956498 5.1709630702 8.1292008001 4.5933480498 
7.9062716104 9.7360839329 8.1098124641 7.8835583433 9.4609503409 9.5818430135 9.2316624779 9.7200512479 9.6500420272 
9.3003727833 9.588431285 7.721667921 8.3718216295 7.6949810016 9.7345647685 8.7580340089 7.2009364014 9.8192771618 
9.47652423 9.6401626469 8.8385997683 9.8598667114 8.1588269444 9.5344180643 9.5526259493 9.7204940652 9.8246073029 
9.8523743042 9.8828897795 9.1175505585 8.677365076 9.3135077066 8.1443050711 8.8746590048 7.8701134028 8.835992686 
8.8829786337 9.4676393711 9.3204076656 7.4727817926 9.412634172 9.0541755251 8.9908710094 9.1170496316 8.9648380415 
8.8534389367 9.163669131 8.3373462303 8.5828579877 8.2369420139 9.6190574253 9.7279438296 9.67601799 9.9161342255 
1.3315822018 8.87553596 9.2395642313 8.6254328821 9.5839324429 8.1369903059 9.2336482692 8.1676173932 8.6953834768 