# vtk DataFile Version 5.1
vtk output
ASCII
DATASET POLYDATA
POINTS 1244 float
-1.06442 -1.94063 -1.76663 -1.9544 -1.56207 12.164 -2.30165 12.054 -2.00019 
-1.79178 11.8999 12.5254 11.9515 -1.74425 -0.78845 11.3591 -1.09025 12.8503 
10.5696 9.82626 -0.823347 11.1663 12.2156 11.4745 -1.57639 -1.88865 -0.280592 
-1.67748 -1.68014 1.19206 -1.52303 -1.38723 2.54603 -1.44445 -1.58387 4.05634 
-1.54941 -1.5526 5.34288 -1.17906 -1.60857 6.93878 -0.899918 -1.66094 8.56018 
-1.6583 -1.94069 9.56695 -1.74321 -2.40216 10.9464 -1.16012 -0.658536 -1.4957 
-0.896224 0.167814 -0.845761 -0.924506 1.74036 -1.00908 -1.38128 3.10522 -1.14787 
-1.51092 4.57349 -1.6086 -1.1662 6.11585 -1.96829 -1.68375 7.74661 -1.99241 
-2.88996 8.80463 -1.73008 -2.40067 10.4601 -1.72995 -1.66338 12.538 -0.681657 
-2.48803 12.4366 0.667882 -2.57209 11.4279 2.12046 -3.32666 10.5045 3.4368 
-3.65194 9.51452 5.039 -3.69283 10.9014 6.41671 -2.43303 11.857 7.66013 
-1.84533 12.6449 9.3769 -2.56406 11.4298 10.5005 -1.96511 -0.50969 11.6792 
-2.55756 0.834106 11.151 -1.73948 2.00775 10.7827 -1.6733 3.37699 11.0036 
-1.07202 4.74434 10.9033 -1.37495 6.15096 11.437 -1.81877 7.68169 11.1907 
-2.48557 8.75111 11.3549 -2.05299 9.94004 12.0067 12.3556 -2.36891 0.445889 
12.1412 -2.89523 1.9356 9.91769 -3.03062 1.91386 8.14719 -3.70466 2.92827 
9.82387 -3.45843 4.18136 8.99544 -3.04735 5.50975 9.0175 -1.89896 6.50604 
11.6222 -2.88242 8.92046 12.0473 -2.10193 10.6813 11.7097 -0.547046 -1.64431 
11.2595 0.992827 -2.11883 10.7562 1.93425 -1.54785 10.8277 3.64017 -1.09423 
10.8045 4.76818 -2.01812 10.5707 6.34596 -1.67705 11.0527 6.96704 -1.1383 
12.237 8.62358 -1.30822 12.6567 10.1478 -2.58045 13.4795 11.4768 -0.175385 
9.35978 10.1686 0.888402 7.52027 7.48321 1.45169 6.62384 6.74101 4.18303 
10.7551 5.39753 5.42408 6.92896 8.09921 4.98131 7.07382 6.81983 7.55824 
8.44629 9.94427 8.00315 12.351 13.26 9.99555 11.6373 0.0349747 11.4565 
11.528 1.35184 11.2336 11.2161 2.54138 11.7273 10.8973 3.32547 10.6764 
11.0933 4.83816 10.9688 11.2713 6.33444 10.7416 11.3104 7.77076 10.5064 
11.5135 9.50397 10.6571 10.965 10.9006 11.3541 0.25946 -2.04468 -2.47303 
1.57172 -1.82653 -2.92124 2.43243 -1.08124 -1.29046 3.40861 -2.79027 -1.69619 
5.04127 -2.69291 -1.86356 6.21332 -1.43297 -1.33287 7.62595 -1.68986 -1.90886 
8.96905 -1.20568 -1.00531 10.5091 -1.71967 -1.09313 -0.657073 -1.44471 12.9241 
0.882236 -1.94249 12.0124 3.1674 -1.20504 12.0246 5.45646 -0.788055 11.9461 
5.44082 -3.58714 12.6656 3.80396 -3.19686 9.83251 6.07563 -2.90135 10.5156 
7.75021 -2.26217 12.779 9.44036 -2.64239 12.5627 -0.948977 12.0065 -2.10381 
0.691719 11.1236 -2.55993 2.38694 11.0778 -2.65274 3.76157 10.2292 -3.18206 
5.24473 10.9195 -2.82429 6.72367 10.3673 -2.89832 7.94611 11.5958 -2.52005 
9.60384 11.6409 -2.49474 10.9385 12.7262 -2.56877 0.352364 11.5125 11.7335 
2.4593 12.0571 11.7337 4.42732 10.713 11.3941 4.97577 8.95508 12.4293 
5.16405 10.9124 13.8223 5.35239 7.84344 12.4162 6.99169 9.13647 9.67246 
7.93119 12.7124 11.3151 9.35588 12.2624 11.996 -1.51936 -0.537834 4.87662 
-1.73872 -0.48846 1.57102 -0.527844 5.78397 0.76004 0.542984 9.30695 3.23989 
-0.897705 8.49621 -0.100267 0.492797 6.00663 7.99232 -0.930654 8.72173 10.0091 
-0.173104 9.24059 5.1195 -1.04787 -0.880159 8.38094 -1.18353 3.06568 10.0216 
-1.12271 2.86586 -0.49929 1.06885 6.36901 6.52098 0.955606 3.5613 4.38026 
0.2862 2.76641 5.8577 -1.35728 -0.503704 9.90267 -1.09823 -0.942605 6.23999 
-1.87866 -0.746261 3.5657 -1.3185 -0.607705 -0.337801 -0.542805 4.67746 9.02672 
-0.889342 5.64065 10.2565 -0.986988 6.50128 9.95806 2.16541 5.74977 6.22921 
0.592681 7.98861 7.78504 -0.935736 10.0023 8.84051 -0.700526 10.9481 7.89056 
-1.95305 8.37159 5.65483 -0.982451 4.42805 0.856604 -1.09842 5.56618 -1.22733 
0.970761 6.84701 3.35179 -0.0910165 7.11592 0.818309 0.250067 8.40575 1.62804 
-2.13023 10.4469 4.26885 -0.891674 10.9825 1.79664 -0.847737 10.5337 0.565565 
0.753775 6.33853 3.5138 -1.3045 6.04836 3.31056 -1.32197 4.31635 3.86813 
0.0354006 7.6975 3.80888 -2.29428 7.10714 5.07312 -0.460256 3.75853 2.45002 
-0.272901 2.62458 1.55578 -0.875283 1.06452 0.939651 -0.410334 1.35237 2.61137 
-0.881431 1.82974 4.08409 -0.499759 4.28239 7.47382 -0.287836 2.88074 8.13143 
-0.156495 1.16001 5.78914 -0.600318 0.996472 7.30544 -0.734458 1.21777 9.16932 
1.57593 3.13931 3.41989 -1.06412 4.55129 5.03465 -1.91281 3.85106 6.18195 
-1.0041 -0.378584 9.12057 -1.15331 -0.676385 7.30896 -1.24743 -0.864387 5.79927 
-1.66452 -0.816801 4.38709 -1.46249 -0.963285 2.15454 -1.32704 -0.360342 0.558045 
-0.828494 3.97144 9.70767 -1.08608 4.56937 10.2669 -0.608081 5.16439 9.66999 
-0.414969 5.21873 8.37592 -0.196039 5.70838 9.01742 0.318111 6.40765 8.61234 
1.12122 6.95802 7.4071 0.114917 6.80718 9.40924 -0.774786 7.63861 9.47316 
0.0749062 7.66677 8.67513 -0.318095 8.38408 8.97394 1.06489 6.93911 7.32477 
1.49778 7.29248 4.99104 1.04365 8.21352 6.54722 -0.677018 8.95631 9.39952 
-1.80459 10.2776 10.4525 0.325613 9.84838 6.92788 -1.80811 10.198 7.12451 
-2.08689 11.4265 6.86821 -0.744112 10.5521 8.31685 0.133624 9.33403 7.48526 
0.0389204 8.9197 8.18155 -1.53721 7.11214 10.8107 -0.730502 6.05933 10.3551 
-0.910605 4.04431 -0.039226 -1.13757 4.50322 -0.43753 -0.913181 4.852 1.58556 
-0.882182 5.17366 0.26773 -0.642794 5.84496 -0.577753 0.435895 6.52637 2.36118 
0.348986 6.57984 0.788206 0.400449 7.0278 1.90434 1.08335 7.71238 3.41852 
0.715793 7.60009 2.42261 0.661245 8.60135 2.54087 0.153237 7.81845 1.20845 
-0.675503 7.52106 -0.166265 -0.337592 8.41494 0.628915 0.392665 9.91747 4.41879 
0.00422018 10.156 2.75462 -0.597033 10.6972 3.23573 -0.722989 9.26795 0.286917 
-1.09487 10.3818 0.0343693 -0.369657 10.0277 1.4983 -0.352749 9.23801 1.19652 
0.148768 9.27931 2.20757 -0.586167 6.90036 -0.723989 -0.394505 6.50848 -0.378024 
-1.65826 8.23791 4.81085 -0.81012 9.0826 3.63467 1.12211 8.09978 5.29264 
-0.419657 7.38895 5.22362 -2.1855 7.71532 4.62551 0.105135 8.26538 5.99697 
1.29715 6.26356 4.55131 0.343307 5.64587 3.56295 -0.312884 5.71818 1.40599 
-0.221566 4.27249 5.89724 1.14373 7.72345 4.1028 1.51922 5.74052 3.72927 
-0.358058 5.34532 6.17384 1.93605 7.78363 6.9743 -2.03538 4.62055 4.89458 
1.31683 5.97032 5.93909 -1.61153 7.2178 2.88291 -0.316151 7.96657 5.72368 
-0.448461 6.14894 7.0812 -2.09655 8.45849 5.64347 0.942594 7.83971 6.92066 
0.181742 5.49197 5.86292 -0.860545 5.06866 2.48411 -0.662594 3.89228 1.63886 
-0.482591 3.44829 1.05444 -0.505981 2.92182 0.415856 0.0792086 2.95134 2.16397 
-0.0923364 3.86024 3.41499 0.852711 2.87225 2.98014 -0.808876 2.21252 -0.127111 
-0.980694 1.24318 0.0479925 -1.16224 0.40624 0.173174 -1.03113 0.235129 1.34236 
0.382295 2.07597 3.28221 -1.08314 2.99374 3.50813 -1.01613 0.0906709 3.36015 
-0.981271 0.558792 2.16274 -1.37317 -0.270391 2.78298 -1.49709 0.223939 4.03061 
-1.17624 0.569673 4.59792 -0.65004 1.27038 1.64789 -0.12169 1.91909 2.07626 
-0.623689 1.86793 0.915196 -0.562134 5.20691 7.75849 -0.388921 4.37889 8.20494 
-0.0588013 3.52596 6.96224 -0.171342 3.42311 7.80699 0.17562 2.65523 6.91314 
-0.553629 3.68124 8.78911 -0.760629 2.98939 9.08615 0.0499171 1.96903 6.12876 
0.299613 1.79556 6.90514 -0.233849 0.896852 6.56851 -0.879994 0.311334 5.39764 
-0.883683 0.225012 6.12289 -0.473875 -0.0714417 6.83937 -0.733568 0.0987407 7.95269 
-1.00866 2.23517 9.56292 -1.28695 1.22312 9.84828 -0.778537 0.500197 8.78929 
-1.31965 0.412131 9.93844 -0.420194 1.13327 8.19167 -0.699761 2.1476 8.60022 
-0.144032 1.99589 7.64516 -0.42969 1.13536 5.1808 0.653907 2.19758 5.15591 
1.01461 2.85568 5.04598 -0.438614 2.24525 4.82253 0.0365542 4.32951 2.55201 
-0.442546 3.75412 6.44771 -0.679519 4.71983 6.65282 -0.989356 5.70818 6.5929 
-1.3518 5.18121 5.44116 -1.63076 5.13744 2.49755 0.412158 5.03575 5.93831 
-0.411181 5.42106 3.64254 0.915801 3.75535 6.09043 -1.47031 5.97339 5.94653 
-1.5189 5.95763 3.40817 -0.623407 3.25513 2.0209 -0.224769 1.91997 2.68157 
0.0490657 4.03022 5.55278 9.58944 -1.52968 4.67025 10.7283 -0.695209 1.85872 
9.8022 5.80963 1.46811 11.5799 9.15083 3.8432 10.3135 8.39466 -0.125307 
9.58224 6.13668 8.24321 10.7836 9.17102 9.94266 11.2069 11.0859 5.58369 
9.77421 -0.471036 7.63521 11.6252 3.06116 10.2602 10.7262 3.00723 -0.162307 
9.10911 7.59048 2.95971 9.83694 3.10667 3.29472 9.59001 5.28358 6.79028 
10.8695 -1.10423 10.4151 8.60665 -0.519379 6.17519 8.58802 -1.46878 3.15206 
11.0124 -0.216822 0.203661 10.166 4.2148 9.45679 10.7205 5.69749 10.0956 
10.3282 7.10081 8.4276 8.59192 7.52161 6.31237 10.7739 8.93045 7.43163 
10.92 10.284 8.59625 10.0524 10.077 8.78957 10.6473 10.6769 7.35417 
9.79274 4.38066 0.597664 10.0683 5.63905 -0.599145 9.50048 6.7907 2.68256 
9.75223 7.27816 0.810866 9.03874 8.77181 1.68294 7.30465 9.83368 3.36754 
8.2289 9.73559 2.72787 10.1681 10.1529 1.40094 10.5307 7.12127 2.81542 
8.90354 8.12103 4.7999 10.4132 5.38856 4.21999 11.7306 6.86228 8.03293 
10.4537 4.86673 5.85018 9.74517 4.27766 2.35592 9.95463 2.79456 1.4113 
10.3473 1.31647 0.583305 9.36574 1.01523 2.15873 9.19739 1.07746 3.99454 
7.68533 3.53451 6.9076 11.3052 2.30599 7.44899 9.00263 0.934649 5.85125 
9.33144 1.58371 7.10753 10.2307 1.08338 9.37728 10.1924 2.4102 4.94686 
7.88999 5.39926 6.28604 9.75667 4.77832 4.34675 10.4129 -0.181847 8.21996 
9.25943 -0.649934 7.00509 9.34407 -0.844658 5.51588 9.21699 -0.802178 4.36298 
9.52089 -0.0779105 2.51178 10.7644 -0.18258 1.05948 11.379 3.65687 9.58328 
10.6792 4.0846 10.2373 10.4601 5.01893 9.60942 9.69309 5.15835 9.12931 
10.0643 5.98403 9.31416 9.67871 6.60542 8.18207 8.8195 6.49002 7.15029 
9.22327 7.3218 7.50176 10.5812 7.83089 9.3382 9.69726 7.78035 8.97744 
10.2613 8.37908 8.71013 10.0867 7.80483 7.80642 8.29473 8.90465 5.23518 
10.3225 8.48392 4.38114 10.7491 9.21833 9.22998 10.8054 9.89343 9.62587 
10.6964 7.72577 8.47066 7.14945 9.20889 6.89566 9.00955 5.8419 6.29027 
10.9392 12.219 7.63888 11.4998 10.4389 5.84189 10.7871 9.5874 8.24977 
10.9884 7.20231 10.023 10.2694 6.46923 9.57628 10.3479 3.72083 0.0622809 
[...]
CELL_DATA 2484
SCALARS scalars double
LOOKUP_TABLE default
6.2110191844 0.76086383299 2.4979016218 -0.447556465 6.4403151981 -2.3816906044 2.9395688602 4.7213447666 2.612205105 
-7.5707962121 1.2728954742 -3.5149081079 -4.6699837926 -1.0865239095 2.0206729624 -0.30881261159 1.9427246692 1.7254537013 
-0.4570937798 3.216317138 -1.5003614384 -2.4587856539 1.8207585331 1.713216699 1.1850955514 -0.17844190538 1.696636439 
1.0698932515 0.59032853437 0.80465641998 6.6678924789 5.1733318497 3.4683982743 3.955152976 -0.82795647562 5.3865863349 
2.9684513391 7.4652089668 2.9451461578 3.6218994233 -1.8187022314 1.4728545434 -2.1470152099 -0.70097393826 -5.3702792198 
-2.4106196794 -6.4822558529 -1.387357494 -1.4008243501 -3.9472776319 -6.4257646964 -3.8291146351 -1.3138426801 -4.0774147783 
5.4698094056 -5.1053242936 -5.1440468 -5.0765845633 1.6258221448 -9.3046240758 -7.8324562556 -1.5496474928 2.3004164888 
-7.4041702525 -3.7083993602 -8.4580453494 -8.4320695943 -1.0241252357 -2.7911353692 -2.5460537915 -2.8678399826 -4.4456027833 
-3.7321015695 -2.4387858618 -4.326344672 -2.5239867995 -2.1488309877 -1.6570757121 -3.7050958327 -3.0718054543 -3.3883184377 
-3.8269112675 2.7117975456 -0.58144502386 -5.4032488274 -7.1689156255 3.4244952917 4.0693304019 3.6246966293 -0.66146637968 
4.0764839744 -4.1959974068 -5.7292051141 -3.0481151085 -2.7086491436 -2.8190462561 -3.7886954614 0.11402547482 -0.65213980411 
1.4211484657 4.5231660597 6.0423594567 4.2546112266 2.720289506 0.40758337364 3.0361182041 2.3157208458 0.19703508125 
7.3803638748 2.8588914351 -6.1811565255 -0.20966055832 0.96106427707 -3.0275945563 -0.99333643573 -0.92505567708 0.12571089794 
-2.1382458176 -2.1818676972 -1.6247660404 -1.3371284386 0.83484188044 1.5904830658 1.0122475342 -4.747420052 -8.8004418199 
-7.3966908926 -7.5931100034 -8.4087063203 -9.5161384206 -8.2292427859 -9.8660175397 -1.8645020739 -1.1729286897 1.4963070128 
-1.3409522289 -1.2068248754 -0.89044868903 -0.81195137731 -6.7659507612 -5.32381802 -1.7084671367 -7.7199328962 -1.1951133146 
-3.4188853844 -2.6228518604 -3.9692196829 -3.8953765727 -4.0602134502 -4.0105873061 -3.7674845936 -5.0110670133 -1.6397805983 
-1.8790819294 -4.1841699932 -5.4678274435 -7.5676274581 -0.44559550136 -5.7752522675 1.5709113191 7.3592084652 1.5549071908 
3.4819826028 -1.7043833561 -2.4865515398 1.7910945684 -1.9593226896 -8.3780611459 5.4088833479 -5.7669379265 -2.8573601411 
-3.4670160764 4.2630104463 -1.3450389918 -6.0914414385 8.9154396493 -6.8707903618 6.3749923738 -4.6433789956 -8.326135398 
-3.0917061661 -6.9256311853 -3.3602448161 0.99581865126 6.6527747872 -3.4252961584 4.8267398346 4.0631499811 7.8286558364 
4.6065836063 5.4507323055 -8.7066112057 -1.6256007884 0.26049686518 7.6852018262 -6.9428437738 4.7545778147 6.8527469501 
2.3074866017 -5.4448950099 2.0128795401 6.8686492495 5.4801844991 5.4544032884 9.5413363713 -5.9215833624 7.2339180312 
5.5074571769 6.6590883421 5.5898910763 1.1381130346 -3.4931016102 -0.011361849188 3.0491194295 -7.078411953 -1.4135487704 
-6.4559317139 1.702242143 3.9098431344 2.564405213 -8.7833762437 -0.68217308782 -0.47884440595 -3.1434906897 8.3532127878 
-0.24165626379 3.4783169063 5.616963654 -9.6278131359 2.5689580126 3.5785568582 -2.3431500563 -2.9152337395 -2.4493707908 
-4.3316519984 -0.70261895053 -1.5087613915 -2.4371579486 -6.0283979466 -3.9818980751 -7.1972538561 -7.1363517541 0.64728907348 
-5.7829397397 -4.4367927071 -5.5125164484 -0.45623758179 1.9940487189 -1.3515396009 1.2654030596 2.4981520607 1.8121889203 
6.4710881907 2.7793891795 2.3204160295 6.3277966762 5.2954737765 2.201389409 1.9258194218 5.5528687457 -0.35757578177 
0.47689249452 5.1616461367 2.448108461 3.9705242465 2.9666446082 3.3239762397 2.4072656636 3.1712399374 2.6390318358 
4.6070118269 3.0506478699 5.1567578561 8.8209528567 6.4840369069 5.1233200934 2.8056376428 3.6699805635 6.092229947 
4.5630256862 2.5479589642 5.6180113405 2.9571132638 2.2409614062 -0.76857895346 2.1958751887 0.92774394348 2.9801304772 
5.6047303567 4.5033577277 7.7556282982 -1.1655144273 0.07541117191 -0.77417829111 -4.084340364 -2.5118099995 -0.1075881251 
-2.4842706874 0.84223132174 0.73497034264 2.0272839732 1.4062624041 -0.14561974565 0.59400407487 -2.8923135982 -0.6890079394 
3.7521957461 2.5157870645 5.7445119205 3.7349974268 6.2800635146 3.9257653516 2.0301924924 3.0803289001 -0.1732911967 
6.5833617226 3.6436686291 6.2079675681 2.040121744 0.9291262834 6.3859958672 3.443228813 6.0720451008 0.35214005978 
-5.0311502788 -0.00018657709779 2.6299068398 2.1603502908 0.53289256421 0.73725695937 0.51438254326 -0.38837718446 2.3555989276 
-1.5700778806 -0.0089410225333 2.238605945 2.5344604497 3.2704310561 -1.4256744829 0.37254409928 1.9865506741 1.1239375323 
4.9447721585 0.48211695766 -1.4068664914 -1.2030322086 1.4557073605 3.7535220113 -1.4320155863 -0.38177317708 3.6371914528 
5.1813645485 3.9690536335 5.1705551313 3.8576130205 -0.067492344811 4.3946149177 3.8067919861 0.84460336301 7.0975815568 
-7.3524544172 7.2352219998 8.9516736597 1.3844620633 6.901127464 2.9406905269 -6.6405014979 -4.7253025299 -2.8043809441 
-3.0385003252 -1.5085781061 5.3139317081 0.96900913814 4.2956729331 -4.61456914 -4.6471221437 0.99036303874 -0.08297829736 
-3.3346174468 -5.3027491195 -2.9591706931 -2.5312374273 -6.7767219368 -8.6420011345 -2.3729311639 -2.3222830635 1.0283614462 
0.86664531997 7.0839577004 5.8957698476 -2.6110840895 2.3601578717 8.3202534681 -1.1202345296 1.1366320285 -5.2320932196 
1.3614208498 -8.9872540785 0.450522638 -9.9070798419 -4.8631094663 5.0943146418 6.9632303226 5.1812576626 -0.95082690297 
1.1201038846 -8.8745966967 -4.9515201301 -1.3811745628 -3.8821828872 -7.8094151744 -8.148357057 3.7891907998 -1.7678345985 
4.2301875042 7.4042976177 -2.3933179064 7.6956934348 2.0908313623 0.89585980279 2.1514463429 -1.030000584 -1.3169295109 
1.4316270652 2.2603227433 -1.3951876531 -1.8873968882 -0.70737777312 -1.981495804 5.2296096575 5.3439001922 5.2862098427 
3.7169384632 4.859115348 4.0090799674 1.85093135 0.58616143786 -3.045925712 7.5663524864 8.9552449352 7.2590521622 
4.8451840112 -0.31132829429 1.350413081 -2.8956956878 -0.45237115905 -1.8817657035 -0.22083557906 -0.41282003541 -0.77606964103 
-2.3540625416 -3.5811742314 -2.0707568629 -1.0791628346 7.2963113066 0.51224653677 -6.8681898738 -6.2391723436 -3.4220617835 
-5.319204175 4.7583604423 -9.3752503085 -4.3205357412 -7.2416444304 7.7614971854 -8.8416659511 -0.61777400095 -1.2047535372 
5.3419672408 -0.4427740442 -4.2110205244 -4.1162634068 -1.5098811083 6.5573205219 2.7174704218 2.0038850839 -4.1652120405 
-0.67421048293 -0.04285619343 7.3615637395 5.372466768 7.4197524317 -1.7830752584 -2.2034884273 -5.5686811073 -2.619231075 
-4.824519975 4.1914694236 -1.7413805491 -3.1120973593 -4.6665807338 -4.3687244637 -2.5581834665 -0.97981159677 1.4394105067 
0.1141617095 2.4301907324 1.6715739867 -0.5678585145 -6.8078349895 -2.3536453061 0.19826048974 -1.6612835286 -1.7907074028 
0.049309534591 -3.0117328283 -5.799678837 -1.0046108177 -0.43162185839 -0.5979655228 1.7258723691 1.582822397 -0.27722012128 
-2.0786858207 1.0441182899 3.8721467186 4.2743465653 0.37225270287 4.4592567845 3.7807748979 2.7007908932 3.5609129955 
3.6872529527 -1.1280110809 -1.9263479072 -1.2609295449 1.6917925352 -3.367434012 -3.6153312577 -3.6856433576 0.48836436068 
3.3173950202 3.2265742354 4.3518667784 3.4609379276 3.8338642957 2.556194356 4.599883568 0.80087243708 3.1504097964 
2.0331159447 4.9906405598 2.8891634493 -2.8534632411 9.5968306667 -1.8359540685 -9.0545391092 6.3435167745 9.6672616678 
-9.6906316299 -3.3200207729 1.4540385304 -6.4512103094 6.128593214 5.6707740255 -9.730557511 4.6686129028 5.9792058698 
4.9276737721 4.8174374988 9.8321555635 -8.2959368569 -7.3805780974 -7.3048015822 -6.4949553085 -4.599190854 -2.5619750128 
7.4732589921 -3.9147148317 -2.8083636153 -5.1251734362 -6.4547066514 -1.3705190223 -0.78876960453 2.8901405067 0.062048790142 
-1.4039128722 -5.0014357345 -7.2155357754 5.1889802295 4.0909383505 -0.67033462465 9.2100030837 3.2956326142 1.1470710025 
1.3664656286 -7.9975013438 8.6233107541 -7.2680331598 -5.8253167455 1.296864197 -1.3436257599 7.750661481 5.8403874013 
-8.8817896349 -4.5842714764 -5.960796211 -8.0353775015 -3.6499832216 -6.2849333615 4.1566681398 4.1257194033 4.316334373 
3.5291819283 3.2541600392 8.2885312058 -7.5085608579 0.98712287335 6.7212161169 2.0342365438 6.6878436616 7.6552933286 
-0.022400973456 7.9797604051 0.67930049588 -0.97942534911 -2.6293200617 4.2528338148 9.7920761389 -4.3730760109 -0.30675754797 
8.5281594562 -0.40853293592 1.1445321275 8.6903737876 -0.11623330332 -5.4294460068 3.6216675445 6.5593769768 8.9580276384 
-0.019754989776 2.6882083808 -3.0890843681 -0.18117831016 7.9193394705 3.3143260751 -9.0547290041 8.0278860118 -5.8089704508 
-8.0727915807 -5.6265665786 -6.0374201549 -8.9885623335 1.9688389505 1.5363648404 -1.0817541721 -3.3214818605 -2.8226319953 
4.610438725 1.4559725743 -0.088098500774 -1.8881537903 -0.77098748215 0.37672422278 -4.0597041751 -0.84085513086 0.99677236354 
-1.5225476782 3.8896033336 1.7856065056 6.2016227707 3.560508297 -3.9427790578 3.7095637054 1.6515934463 4.9085810255 
4.3727094856 4.856893311 1.575481292 3.5439875946 -2.4243052925 4.8997625695 3.3424028095 -1.7469727818 -3.7899199129 
-3.8599526787 5.2435100524 2.0700831179 -3.0900000808 -3.0437204872 -0.10604875171 -1.1231190574 -0.091027846302 -1.7586840948 
-3.5685016489 -1.5791054282 -0.052763220754 -0.36015897341 4.5596155194 4.8251316839 3.2688042157 3.2297751577 -2.7990503626 
-2.2693382992 0.99538397714 1.1268373882 5.4724349566 -1.4750552053 -3.9896437962 -2.1385417788 0.82709425992 5.5201279485 
-1.8084414414 -1.5986176784 -3.0220995056 -3.6519420976 0.51388010752 -3.3919388882 0.31689631897 -3.1137027352 -5.4763119706 
1.0194640817 8.9587222689 -3.9764863845 0.8147023721 -4.5780543907 -1.7011836391 9.1010103831 9.4084757357 9.2940050752 
-1.5056997709 2.0407088261 -0.50045811224 -0.44971968695 3.3060277683 0.63129190085 -4.239632166 0.40222165491 -0.7315741778 
-1.6809867749 4.2112417364 0.046144059566 -4.6712791015 1.3371221322 2.0006906138 1.9692248494 1.2057988135 -2.5231738625 
0.076784167835 -2.4705573961 1.8813103266 5.727830838 1.9558040297 5.780560402 -0.88691331441 -0.15845389965 4.2248114136 
-4.3516925525 -1.4188797716 -0.12900434556 -3.4768131473 -3.9348166312 -6.210200012 -4.6423448905 -2.6671170382 -4.0924955538 
-0.39187410119 -1.1161493488 -1.3270657089 -1.9970498618 -8.9094320975 -0.52305419032 -7.3767190199 -0.41252121998 0.53964583806 
1.67017094 2.1720116623 1.5218868718 1.2095090362 -2.7882674937 0.37055622044 1.7004461356 -2.7597099667 -1.3179937335 
-2.4112851614 -4.2102718627 -7.983557104 -2.244978826 0.6098104443 0.30852323242 -1.5227938177 2.8239413359 -0.45725959132 
1.601400723 -8.1483189366 -3.1974612468 -6.0558113597 0.34852816888 -6.6936705292 -3.0920537779 -2.7165782911 -5.524015688 
-4.7466769465 -1.0229293929 -2.17794411 -2.8801319138 -3.5192936413 4.0850001564 3.1502225913 2.9716350437 -8.8543852145 
8.0758373292 3.0279144513 -9.9133075194 -2.5067180869 0.53046495267 1.8976669942 1.284787706 1.8620876839 -2.8205187102 
-8.4377996464 -3.2040345203 6.4064158904 -0.62739301726 3.7876635182 4.9992244525 4.3308698633 -2.1547894282 0.79809802356 
-2.2887657001 -8.6915592394 -7.3181960855 -6.4263488244 9.9312655525 -2.2459970164 -3.6216521469 8.6519347995 9.4714135966 
-4.7990756281 -8.6015418527 -8.9060322299 -7.0729027707 2.296705395 9.5244480301 5.0829314769 8.0192767195 7.4643666452 
-9.6334947909 0.18999447354 1.2561910961 -2.6540686526 7.0087236952 8.1085583434 -7.0940500062 -8.9085844897 -8.6856329824 
-9.8806379575 -9.219207991 -7.6490591411 -0.15216241116 1.6382141737 -2.2685293374 -1.9996167942 -8.9205709329 -6.4431118465 
7.4296340886 5.3813279246 -2.3644096647 -0.21395232268 6.2489048139 0.34736658127 6.9905065977 -2.3072632927 -2.8396054024 
0.74414760099 -5.5587292661 4.4558420069 -5.7814701525 -5.7564592289 -9.8256937691 -8.5084004266 -0.6928494004 -7.1584747335 
-8.2113814715 -5.3459886238 -4.1106086717 -7.5178547548 2.1234112304 -7.4591512456 0.21965622536 -8.9340728857 -8.8887267063 
-6.3351855366 -8.9126218431 -4.9900270164 -7.5351145356 -9.7420152214 -6.1700482685 -7.9436812339 -4.6567793098 -9.1172589272 
9.2445197448 1.4942542734 -5.3739459238 -8.811358158 -9.4584544706 -8.0160519253 -7.3607407632 -9.5186446432 -6.254294209 
-7.3799659115 -6.7659446235 -8.1920915685 -8.6313311835 -8.9590206622 -9.2680613853 -8.5039377528 -7.5563420973 -7.3739820204 
-7.3502420122 -7.588017109 -9.8064342643 -6.7439288759 -5.6922116269 -0.58758275612 -9.4133314383 -7.8904047771 0.13159129262 
-9.9062842804 -8.9046799623 -6.6305106285 -6.7404076715 -7.5339711546 -8.8182334231 -6.8931864105 -7.0732774287 -7.9941165272 
-7.6994806738 -9.3898088834 -7.7208924086 -7.6343750163 -7.1679049525 -7.7629967705 -7.7728746919 -7.6690493505 -9.4841434729 
-8.9781750065 -4.2737611775 -8.4633005065 -2.2654111915 1.2396718243 -5.5321644691 -7.0195778544 -6.4141301388 -8.2561668165 
-6.1161091563 -8.2448736253 -5.7159527834 -6.1866084346 -9.2512874386 -7.1082918685 -9.4146066475 -9.1848413173 -9.3158679554 
-9.0617504836 -9.4912304769 -9.9679550035 -9.9620114703 -9.6863114066 -9.5443737871 -8.8305446121 -9.1570197688 -8.6134167096 
-8.7679988296 -8.5128824454 -8.5333653471 -9.0214823409 -7.7497715237 -7.2316881796 -9.3331231232 -9.6551270118 -7.9265643803 
-8.5217025195 -7.9796407881 -8.4815053366 -8.1898187379 -6.9794489604 -7.0508343795 -8.361219392 -8.1713924059 -9.2969380262 
-9.6625599386 -1.9562123755 -2.4595059311 -1.7319725555 -4.7244243625 -6.9576335393 -7.7241804864 -7.9053149399 -8.1053482772 
-6.5914854031 -4.2221094641 -3.7351488591 -8.666647899 -8.3907426122 -8.711199046 -9.5322315108 -9.9912313496 -7.7487206685 
-8.2995481628 -8.6882097055 -9.609643513 -5.3517030522 -5.5805273344 -6.9127228575 -6.729084858 -8.8820171405 -6.0435644108 
-8.2770179222 -8.8699603143 -4.4478802123 1.2591519159 1.2400584732 -3.2940834561 0.14888358381 -9.3836943929 -3.7930623585 
-9.5895633764 -7.8652799845 -2.0250536163 -8.5100215908 8.1639414713 -6.4277743264 4.0123723771 4.8866396919 9.33205964 
-6.880441756 3.6254344693 1.8475696671 -6.5948612415 -3.4279184976 1.7782557508 -6.6992121641 -3.3620492965 4.4633767071 
-0.78306590612 -3.1004852163 -0.4140896823 6.5194815152 2.4367494907 -6.229623534 -6.8690133634 1.6899200207 9.5299376917 
8.0034786793 -1.4884858406 0.14018195439 -6.4160116084 -5.6157444745 -5.7287212385 -9.4344459083 -8.532288051 -6.6539584091 
-7.9631150693 -1.687856821 -8.6157305879 -7.0953635886 1.1193435072 -8.3240819239 -9.3056983414 -9.0190638096 -9.6157875074 
-9.2210919105 -9.3430860096 -8.7514147753 -9.2850275407 -9.4953456541 -7.114507654 -6.3360876128 -5.6229530758 -8.8095130581 
-9.1986372052 -9.3052741272 -9.2273515922 -8.8788317964 -9.6591648456 -9.9523685094 -9.5246752407 -8.8590778615 -9.781417732 
-9.5077010028 -9.4244881918 -8.8649929198 -9.4091844455 -8.5433361727 -9.7400350769 -9.2134675363 -3.8770515194 -4.8446322176 
-4.1017702396 -3.1402225902 -9.4914485559 1.581319511 -3.3540942934 -6.7814314359 4.7897148595 2.8181419046 2.277766448 
-5.6633198113 -4.7159528497 -4.5665032796 5.8800612046 -9.5892240288 -3.1554610072 -5.8850544877 -6.2074152506 -9.8258310016 
-8.8368171304 -5.7753299438 -8.8066241997 -9.1904227923 -8.5841440608 -9.1076692764 -9.1159858211 -6.1550213382 -8.0829463195 
-6.1289579219 -6.1640525744 -0.0073282588959 1.4830437944 -8.7822246691 -1.8064916507 2.0855850674 6.662210436 3.8343460896 
-7.4554959626 5.8102098924 -8.3392101943 -6.8963797692 5.8950577148 7.453423675 0.34033091578 -7.6617737544 0.10516989203 
-9.7667148177 -9.1560042486 -7.8054852681 -9.1833282521 -9.1493547284 -3.2108582328 -5.0571202266 -5.4594106167 -6.4480426049 
-3.8544543503 3.01113427 -4.8163051778 -4.2672977301 -7.64617333 -9.1364000333 -8.1736588054 -1.6640677643 -7.7334381374 
-7.0931366698 -3.4182098946 -7.6763854349 -7.577479006 -6.6364756312 -7.7215866603 -6.5226244947 -7.6873900112 -8.3018509862 
-7.7309032867 -3.8516387404 -8.7654627458 -7.4173024583 -8.5796296229 -9.071399256 -8.0269299049 8.8091557086 9.0113762409 
-7.4900420243 -4.1956330349 -7.189464764 -8.0922403223 -5.9182289281 -6.8511178491 -9.0394620024 -5.8725010592 -3.2568622038 
-3.2029791382 -9.6318206867 -5.4156296346 2.0371151278 -9.2719523357 -5.9136269756 -3.6804142537 -9.1810154789 -7.7157618952 
-8.4907675135 -9.0315451201 -7.8012174131 -9.8743657544 -7.1731882905 -8.7750854481 -6.8712180614 -1.706176162 -9.2504700374 
-9.7740897218 1.579669368 -9.983538859 5.6041132087 -3.7657671704 -6.8782950167 8.6048077566 -4.7726042825 7.8406232624 
-9.3821015596 -7.2857746459 3.8688436132 2.594911706 -6.3500912632 -7.7499502941 -9.5351733961 -8.9714577025 -8.1293068165 
3.5914076391 -1.8191038612 5.227777766 -7.4537544122 -6.7760770323 -8.2819030004 -6.8750631932 -7.2798988009 -9.1715164069 
-9.7211984667 -6.7778867242 -9.7885067969 -8.7798100499 6.2483706259 8.5844615535 -9.5558087915 -9.6835694777 -8.8154184274 
-9.4041239816 -7.5109314679 -6.4983940495 -8.1241018981 -6.2134370613 -7.1870499139 -3.8144042109 -9.6147777099 -7.1207372628 
-7.0422833763 7.0146876048 6.5253925881 6.7244235132 -2.2457145643 -2.4779620852 -0.39992405725 -7.9051269105 -2.3068837562 
-1.9613315379 1.6299398486 0.9646312337 -4.4984834915 -8.3703281472 -5.2777563769 -9.5547983453 4.6723648701 4.2146354924 
-1.5478375762 8.8396106763 -7.1199238044 -3.9540500558 0.71475996747 2.8724089531 -6.0408057263 2.0015955928 6.3412699015 
2.1842140424 9.4756606333 -0.56536081481 8.8971744425 9.4043402957 4.7920398289 0.10231074673 4.133529245 8.1352894667 
6.5171955391 9.8820670093 9.2819685856 5.7759537864 3.8057254148 8.0124522602 9.2761532671 6.7314099945 9.5838579505 
9.795818403 9.9078791001 9.5119339594 9.2938026665 9.8774032359 9.6022456479 9.4797313357 8.2573042865 7.9144947248 
6.78947288 8.1473558709 9.5210449683 8.3324551626 9.5050234946 8.3111438362 4.4910098348 8.3749374759 7.7159743571 
7.6772233547 8.7930567759 6.9436571701 7.0426120143 0.83188604345 9.0444354995 8.8685688696 4.0893481612 8.5908603768 
8.7490114581 8.4542534199 9.2731781138 8.6928541727 6.4910708076 6.5847248154 8.9381131842 8.8857309643 9.6212288216 
9.8640362173 7.0874352532 8.1674526939 2.687501592 9.9326800354 8.8288120544 7.2191503939 6.0744919584 -0.78562600615 
7.2977378794 9.9420723672 9.9973996376 -2.9227192402 2.7303812987 6.2994507459 9.9270290809 8.5022899734 9.7487942216 
9.549651885 9.7092711214 9.2651001601 9.271969449 8.5152605215 7.6563721946 8.525948055 9.5611578355 9.7457749942 
9.924209152 9.6981932355 9.3504651704 9.7526863684 9.5870612149 9.4360119728 9.379903129 9.6049713879 8.9583283231 
9.2767261841 8.8240815674 9.238422296 9.4128505157 9.9621018688 9.0570250807 9.327290206 9.6297939505 8.2488387417 
8.2525854703 9.4255567875 7.8969235316 7.5328007561 7.2565272719 7.8101408614 7.0662860464 9.3077544174 8.1239387759 
7.8853692656 7.5123617162 7.4652139737 4.1271185426 7.3497818433 7.291200625 8.2305758493 7.3454631569 7.5743411431 
5.4996084825 7.5773136774 8.9502024215 9.7189569739 9.7577224503 9.7387779377 6.6520242938 6.7775466997 8.0292634122 
6.5099322124 8.972937095 8.8659609098 7.4609470841 9.7565447834 9.365296248 9.489945487 9.8813469783 9.9749119052 
9.4458230761 9.6125944544 7.166131454 8.1703401875 8.8739860873 6.8021289156 9.9146574284 7.0451011458 9.9289742398 
7.3541540129 7.7594921101 8.3760309334 9.8094334005 9.8865682962 9.386809718 9.9759354089 9.9839322238 6.834968981 
9.7771870196 9.6972259264 9.4871180762 8.9676674904 9.6982348094 9.1034689419 8.9040183503 8.7267459804 8.7633692947 
8.6587496792 7.8840611039 8.8948648296 8.8541703134 8.7491105816 8.8097448186 8.3598488038 8.824154771 9.2880173955 
9.9183370598 8.3953211458 9.4140650351 8.3876444926 9.9123855229 9.425475248 8.8472772538 9.2390977883 9.2834416068 
1.3935011374 9.6293089319 9.798818794 8.6232531171 9.2870090029 9.8595450552 9.7889791701 8.1193583001 9.2731176591 