# vtk DataFile Version 5.1
vtk output
ASCII
DATASET POLYDATA
POINTS 1244 float
-1.14075 -2.27645 -1.7357 -2.26474 -2.2625 12.5458 -2.48091 12.236 -2.10399 
-2.29033 11.8475 12.5594 12.3187 -2.16741 -1.12851 11.6169 -2.55678 12.8205 
11.0869 10.152 -1.20374 11.6924 12.7061 11.8846 -1.74448 -2.05289 -0.52121 
-1.86167 -1.91805 0.884778 -1.98213 -1.9545 2.54252 -2.07222 -2.04805 3.91683 
-1.83732 -1.81497 5.5489 -1.38597 -1.71169 7.28052 -1.29816 -1.54512 8.72067 
-1.46516 -2.08234 10.3419 -2.09152 -2.48655 10.8374 -1.23977 -0.935777 -1.6232 
-1.00094 -0.137255 -1.1211 -0.802739 1.29306 -0.980593 -1.40433 3.0875 -1.18466 
-1.53621 4.53606 -1.60252 -1.45934 6.10746 -2.48917 -2.08125 7.60216 -2.18987 
-3.03228 8.98453 -1.79586 -3.01128 10.8138 -2.14798 -2.22931 13.0406 -1.09527 
-2.3069 12.8278 0.541603 -3.5212 11.928 2.08862 -3.39644 10.4065 3.6201 
-4.70935 9.44962 4.86845 -3.66398 10.5969 6.37067 -3.23998 12.3239 7.76285 
-2.06529 12.5091 9.3785 -3.016 12.1907 11.0129 -2.30244 -0.970798 11.9426 
-2.67567 0.63822 11.3337 -2.02189 1.8032 11.0301 -1.76472 3.20619 10.8619 
-1.32661 4.60802 11.1797 -1.48834 6.2481 11.4021 -1.78436 7.74816 11.2773 
-2.62259 9.00024 11.5291 -2.16271 10.3687 12.3329 12.6754 -2.73504 0.334953 
12.3856 -3.09802 1.80471 10.1198 -3.43782 1.75576 8.18948 -4.03229 2.69454 
9.77432 -3.89316 3.77262 8.6571 -3.43253 5.3545 8.93654 -2.68646 6.90812 
11.785 -3.4951 9.25582 11.8868 -2.49816 10.8844 11.9926 -0.871293 -1.84121 
11.2916 0.512834 -1.97745 11.0889 1.53614 -1.59704 11.145 3.28345 -1.51097 
10.9422 5.11592 -1.83428 10.8491 6.15436 -1.70972 11.0289 6.92176 -1.27053 
12.6031 8.94185 -1.49308 12.7618 10.164 -2.792 14.1286 11.5981 0.018563 
9.40102 10.1083 0.696628 7.14776 7.47393 1.17956 6.41738 6.31006 4.11191 
10.5087 5.11929 5.4384 6.74403 7.96476 4.95567 6.68094 6.70805 7.41574 
8.09953 9.9224 8.13558 12.3339 13.3344 10.0673 11.7611 -0.598802 11.8187 
11.7907 1.05849 11.482 11.2001 1.94849 10.7232 11.3951 3.19483 10.9794 
11.1428 5.00266 11.4213 10.9574 6.62663 10.5895 10.9779 8.42734 10.4803 
11.4446 9.82132 10.6831 10.9205 11.4204 10.968 -0.0497657 -2.20348 -2.49787 
1.10776 -2.01148 -2.91503 1.31857 -1.56785 -2.01341 3.36809 -2.92762 -1.77621 
4.97726 -2.65959 -1.7474 6.26771 -1.62811 -1.54985 8.05157 -1.45034 -1.71441 
9.1358 -1.61555 -1.2243 10.7067 -2.21004 -1.50325 -0.800007 -2.1204 13.0435 
0.930966 -2.18968 12.5039 3.4741 -1.75734 12.5112 5.6611 -0.71767 12.0916 
5.41771 -4.48724 12.8921 3.79111 -3.62479 9.83056 6.04886 -3.71838 10.7491 
7.79717 -2.45334 12.8804 9.62158 -2.64731 12.6897 -1.15373 12.4981 -2.76438 
0.476479 11.2287 -2.66276 2.11646 11.2266 -3.21838 3.72758 10.4675 -2.94708 
5.20241 10.9619 -3.58291 6.65822 10.5169 -2.84878 7.97396 11.9272 -2.77648 
9.9416 11.9738 -2.91327 10.9564 12.9517 -2.21334 -0.0696482 12.2846 12.4343 
2.4304 12.1433 12.189 4.81972 11.0621 11.7945 5.05404 8.76424 12.7379 
5.23707 10.771 13.7883 5.30847 7.65778 13.1249 6.95608 9.12909 9.68807 
7.92174 13.3866 11.5883 9.43005 12.3461 12.2123 -1.48355 -0.613146 4.99068 
-1.54918 -0.742609 1.41829 -0.523393 5.72612 0.284615 0.704266 9.48279 3.39798 
-1.02964 8.52661 -0.0525659 0.395541 6.17026 8.02573 -1.05392 8.78174 9.8342 
-0.0522292 9.05603 4.8856 -1.24482 -0.775303 8.37613 -1.31463 3.01063 10.1274 
-1.07267 2.93029 -0.492157 1.09745 6.31207 6.72608 0.835842 3.70647 4.43617 
0.620223 2.81957 5.75732 -1.68717 -0.55914 9.87653 -1.49857 -1.00893 6.36301 
-1.73382 -1.00708 3.40993 -1.31254 -0.813295 -0.35744 -0.700013 4.57976 9.11436 
-1.18362 5.34307 10.4063 -1.12769 6.51855 10.1616 2.17695 5.61748 6.16265 
0.623871 8.01677 7.74292 -0.847249 10.0541 8.89533 -0.738174 11.2278 7.93436 
-2.33171 8.16104 5.54005 -1.07992 4.37578 0.773081 -1.06691 5.44208 -1.53044 
1.06079 6.78068 3.34323 -0.352076 7.19673 0.720286 0.0219818 8.51613 1.49945 
-2.50149 10.5326 4.20534 -0.827153 11.3626 1.75116 -0.950621 10.5578 0.496175 
0.71031 6.24237 3.50762 -1.55423 5.73113 3.15383 -1.91344 4.02241 4.26991 
0.0569726 7.78302 3.74788 -2.05338 6.95524 4.62882 -0.546096 4.02154 2.28951 
-0.510918 2.57128 1.52269 -0.868214 0.993445 0.882979 -0.502471 1.26722 2.50571 
-1.41143 1.89457 4.10908 -0.596118 4.51809 7.49745 -0.410351 2.70825 8.16525 
-0.392979 1.26148 5.87246 -0.774452 0.824007 7.43321 -0.984249 1.19089 9.10586 
1.63401 2.77526 3.59504 -1.26593 4.70198 4.88799 -1.5518 4.05164 6.71475 
-1.31724 -0.438889 9.1139 -1.27714 -0.801589 7.35572 -1.24455 -1.06885 5.69636 
-1.71944 -1.04021 4.40767 -2.09611 -1.12977 2.04812 -1.47857 -0.487076 0.482748 
-0.982853 3.94247 9.73766 -1.36665 4.49598 10.3447 -0.936414 5.17653 9.72629 
-0.545019 5.37812 8.24549 -0.383573 5.58852 8.98886 -0.142617 6.47526 8.49509 
1.00098 7.04983 7.31189 -0.065232 7.10165 9.60065 -0.798432 7.68924 9.48338 
-0.112277 7.78498 8.51425 -0.328965 8.32287 8.93318 1.07109 6.97473 7.31398 
1.77759 7.30635 4.68217 1.31294 8.29001 6.45094 -0.627017 8.98597 9.53443 
-1.70907 10.2675 10.3638 0.272827 10.1875 6.57302 -2.252 10.0516 7.21957 
-2.34482 11.5454 6.5218 -0.705541 10.59 8.37634 0.257278 9.4703 7.49624 
-0.0145734 8.8865 8.17913 -1.43798 7.01106 10.5406 -0.748364 6.02336 10.1382 
-1.16319 3.98413 -0.00481249 -1.23931 4.42985 -0.494283 -0.947806 4.93256 1.44439 
-1.46094 4.94115 0.108809 -1.49911 6.01636 -0.684925 0.416618 6.52349 2.27563 
-0.239155 6.6592 0.948788 0.276181 7.11218 1.86713 1.28662 7.80044 3.3322 
0.539231 7.71388 2.30713 0.740646 8.69448 2.55055 -0.0420568 7.80066 1.11588 
-0.796805 7.49561 -0.176193 -0.580855 8.40741 0.550101 0.37678 10.1372 4.51409 
0.177824 10.5015 2.6767 -0.712783 10.782 3.26509 -0.829348 9.28673 0.228966 
-1.09062 10.4264 -0.011205 -0.431472 9.98958 1.47456 -0.415896 9.28685 1.07339 
0.104588 9.31411 2.16344 -0.832291 6.85959 -0.785428 -0.651659 6.46593 -0.60965 
-1.87251 8.01674 4.85855 -0.859771 9.10192 3.29521 1.31914 8.14129 5.48806 
-0.267693 6.76772 5.4142 -2.43576 7.58918 4.31996 0.0885742 8.09781 6.02728 
1.51454 6.2161 4.7508 0.616102 5.46629 3.43839 -0.417833 5.54767 0.699046 
0.104076 4.25058 5.93176 0.918379 7.86359 4.32963 1.64714 5.75616 3.85232 
-0.305563 5.08562 6.11006 2.31285 7.94093 6.90225 -2.03638 4.50704 4.92844 
1.44457 5.95505 5.74157 -1.98578 7.31308 1.95311 -0.182281 7.87347 5.10538 
-0.479056 6.01278 7.20853 -2.15773 8.72593 5.70127 0.840032 7.78882 6.72223 
0.169501 4.92723 6.14162 -1.15987 5.35139 2.69119 -0.807068 3.76179 1.45742 
-0.747221 3.36019 1.03886 -0.913693 2.87229 0.476983 -0.302956 2.94971 2.21849 
-0.0196234 3.89572 3.39478 0.43857 2.78659 2.98995 -0.974827 2.3053 -0.351841 
-1.0284 1.34331 -0.202239 -1.0468 0.450295 0.107737 -1.37214 0.222655 1.25821 
0.171168 1.90783 3.20009 -0.892914 2.62817 3.49227 -1.5105 0.13136 3.15928 
-1.05648 0.450998 2.10939 -1.63261 -0.501578 2.77793 -1.56392 0.0780309 3.99352 
-1.14186 0.589641 4.52209 -0.753542 1.18514 1.5795 -0.0829245 1.89009 1.93524 
-0.774227 1.95549 0.851582 -0.571722 5.16308 7.5918 -0.636841 4.34441 8.28059 
-0.363736 3.61704 7.21116 -0.465356 3.36135 7.89183 -0.100811 2.69736 6.88072 
-0.809283 3.67309 8.71873 -0.852428 2.94221 9.11879 0.321885 1.78746 6.23323 
-0.28529 1.80284 6.86715 -0.49195 0.728199 6.70715 -1.08393 0.163195 5.44659 
-1.03583 0.0684929 6.10099 -0.839799 -0.234547 6.88517 -0.989033 0.0822848 7.95942 
-1.15742 2.27073 9.6131 -1.41634 1.18798 9.77554 -1.0365 0.38497 8.72559 
-1.34286 0.326591 10.0246 -0.898929 1.16777 8.17704 -0.808214 2.00778 8.68365 
-0.314351 1.92633 7.73249 -0.52482 0.868519 5.20045 0.402759 2.14858 5.0594 
0.862533 2.96057 4.8249 -0.401078 1.94717 4.54244 0.404658 4.65105 2.52844 
-0.40113 3.93267 6.256 -0.94313 4.64935 6.85698 -1.34821 5.63528 6.59562 
-1.44015 5.2486 5.37503 -1.87177 5.17271 1.65146 0.552942 4.90259 5.87195 
-0.485772 5.56117 3.85867 1.08369 3.64794 6.18982 -1.45891 5.93252 5.8679 
-1.97005 5.9577 3.38911 -0.895014 3.27911 1.3779 0.136866 2.05202 2.30045 
-0.0256563 3.9679 5.33814 9.1638 -1.66662 4.7385 10.7882 -0.713986 1.89062 
9.71453 5.87151 1.49976 11.5842 9.15205 4.0134 10.3299 8.35592 -0.0355413 
9.05392 6.15142 8.54605 10.7867 9.30184 9.7527 10.9947 10.9406 5.60351 
9.62417 -0.591574 7.63776 11.5219 2.83378 10.2879 10.3653 2.98789 -0.263412 
8.83889 7.56822 2.97487 9.4889 2.9926 3.38168 9.68026 4.99468 6.72371 
10.8586 -1.12278 10.3864 8.65501 -1.04226 6.43197 8.73165 -1.64954 3.11858 
10.95 -0.259196 0.17046 10.2085 4.45909 9.46531 10.7878 5.74371 10.2948 
9.989 7.08675 8.86761 8.43718 7.72515 6.04064 10.8989 8.88787 7.3344 
10.9868 10.2867 8.55358 9.99275 10.1006 8.88078 10.6422 10.7026 7.42149 
9.86245 4.36508 0.479724 10.2373 5.68594 -0.776788 9.61878 6.74298 2.69482 
9.47096 7.12618 0.795134 9.08354 8.88197 1.67385 7.07876 9.87366 3.21092 
7.9157 9.68882 2.56631 10.2152 10.5362 1.2133 10.3556 7.09775 2.95492 
8.7041 8.36774 4.9742 10.3856 5.35167 4.24931 11.8488 6.73363 7.89747 
10.4027 4.77622 5.69451 9.58203 4.30272 2.09115 9.75099 2.75308 1.12752 
10.1671 1.16255 0.395426 9.32879 1.03412 2.42612 9.2636 0.71181 3.84272 
8.40282 3.43884 6.66734 11.2967 2.22083 7.76597 8.8157 0.870747 5.91915 
9.19193 1.3506 7.03235 10.6359 0.781203 9.3189 10.1931 2.30202 5.12219 
8.20206 5.51681 6.11145 9.41311 5.03055 4.51399 10.1837 -0.374494 8.41668 
9.0061 -0.72666 7.04678 8.98735 -0.924106 5.51122 9.14836 -0.746383 4.13486 
9.55062 -0.27493 2.41648 10.7739 -0.238077 1.02593 11.4398 3.52013 9.76456 
11.1046 4.39927 10.4574 10.2049 5.02585 10.0901 9.4957 5.09367 9.0542 
9.95003 5.93764 9.27991 9.51475 6.64636 7.98329 8.92177 6.56663 6.95024 
9.00024 7.2937 7.35429 10.6329 7.89788 9.88791 10.1549 7.73572 8.55235 
10.5417 8.40709 8.80306 9.89499 7.79888 7.58238 7.83999 9.18002 4.89893 
10.3139 8.72222 4.04456 10.7987 9.15464 9.1763 10.9776 10.1715 9.52584 
10.7989 7.54207 8.44259 7.17036 9.07391 6.89324 8.76695 5.42994 6.28765 
11.4171 12.7086 7.36557 11.3309 10.6869 5.65252 10.9065 9.59894 8.19413 
10.6464 7.28189 9.91872 10.423 6.47226 9.52125 10.5676 3.7855 0.0228222 
10.4188 4.46372 -0.637797 9.90455 5.22421 0.810237 10.4063 5.03315 -0.36786 
[...]
CELL_DATA 2484
SCALARS scalars double
LOOKUP_TABLE default
-8.3335295357 1.4678510964 2.0513067749 -0.31192538456 2.0370827464 2.9836612011 -0.69705121626 -4.8813743012 5.9218298035 
-3.7084803971 3.3565835429 3.1973735858 2.8990089715 0.19508831768 -1.8063618418 3.00846809 3.4910257692 3.4529160726 
-0.69340577893 1.8252539753 4.1181680745 2.8677429721 4.5773548745 1.9824894189 0.89245404347 -0.80644559719 0.75455990867 
0.3351204297 -1.0515011278 3.9733570193 7.5455769824 7.5234688455 1.3048438754 2.9706627193 -1.4067090533 5.1575969746 
-1.0907173846 7.2016692117 3.8293597637 6.6284461454 -1.1021001567 0.22658128285 2.036492912 1.1260732545 -4.4925676357 
-1.6495148576 -7.1658790379 0.081404301022 -0.23255757344 -3.4939390998 -8.298380821 -5.8371159176 4.8122401556 -4.1514007861 
5.491163206 -5.7676456504 -5.9870150698 -4.1071159977 -0.50070910448 -8.3275939855 -8.4030108518 -0.26108460874 4.2474013343 
-8.3678166741 -2.7715527539 -6.3531315256 -8.7768157315 -2.9401685935 -4.0265188826 -2.9440905385 -3.5092915125 -4.5117545381 
-2.9057352128 -4.3280885802 -3.8811431216 -2.9823828521 3.3484187817 -0.3882031861 -2.9072879267 -2.7335440744 -3.5308222087 
-2.6139097054 0.48237965111 -0.90890920318 -5.7249389599 -5.3998207605 -1.8963773755 3.7361216691 0.7392973421 -0.6312669664 
3.048274278 -4.0561515868 -6.058447394 -2.0708599251 -1.7622666426 -2.5738354809 -0.33986318378 -0.13670443175 0.28772419246 
-2.0495701533 8.4009135542 -2.5305109486 2.2654367883 3.4849348812 -5.5074953549 4.6322293937 -4.8263792587 -2.487783732 
-0.39463373958 1.3310972766 0.20624586982 0.99781400822 1.8366662425 -3.2475679647 0.3082353433 0.20164619657 1.3438065421 
-2.1722733854 -2.4627813021 -2.2955317526 -1.4790688966 1.2760759633 0.36597705995 0.68241751627 -4.5571677384 -9.1307441638 
-8.4204088299 -9.1413081836 -8.8423529305 -9.1367483564 -7.0916170211 -9.9032795802 -1.5280709335 -0.46372232902 2.4019517128 
-0.30895908787 -2.5289109772 -2.6395252181 -2.2204488432 -5.7334911337 -3.3171447993 -1.7538199231 -7.4877778327 -0.092045323438 
-1.6811030051 -0.92799185474 -2.1983545857 -3.9362849031 -3.0388523906 -2.5804662934 -2.6063050071 -3.2472041539 -2.218750552 
-2.5981187763 -2.8395460311 -4.7227144524 -5.9701360374 -2.1679877648 -0.88972046992 7.0208068261 -2.4406452013 8.827463118 
0.21210963591 -2.5942555762 -4.1763782509 1.5397739553 -2.3552596158 -8.8659065205 6.5985600005 -5.0599917333 -2.8266540833 
-4.3155449335 3.6143444583 -0.11452433927 -6.0878180778 9.2314371441 -7.3456936771 6.31236123 -4.7674034826 -8.0553905925 
-3.3903515653 -6.8182060968 -2.9236106885 2.0440095989 6.6845251558 -4.1748561286 3.1686165404 2.3847784851 8.7817975133 
2.1346290135 4.2375846 -8.6011355669 -2.9931852229 1.1542038872 8.6016484968 -6.7009652102 3.1924597627 6.3564494525 
2.5635408526 -5.1637155358 0.1949648203 6.7829892933 5.2402544691 5.6999429064 9.6320834945 -6.6359430647 6.8805546262 
6.9048528525 7.2275539493 6.779659326 -0.78085977494 -2.197731275 0.16127056039 2.1687404464 -6.3244635886 -1.2296888292 
-6.1869013335 1.5758737849 3.3235684764 2.941127984 -8.6590788458 -0.69457673607 -0.041295783642 -3.315985926 8.5086997633 
0.4322206624 2.423454651 4.6022339968 -9.4197756228 1.0672561289 1.8372838834 -1.1149853476 -4.8067972688 -1.1977596678 
-2.4924793743 -1.5370103862 -0.7207723824 -0.655625227 -2.2796895249 -5.6949478327 -4.8039846729 -4.8243474766 -0.82078137341 
-2.291100237 -2.7768566765 -3.6058180983 1.5634834855 0.81294343792 -0.82763789362 0.40594844262 4.9064072955 2.9958523718 
1.7613932757 3.4653936963 0.79452602248 5.274837488 5.2918458271 2.326757645 0.46229453428 6.8482592294 2.7017282108 
1.678863847 5.4336989195 5.2386598149 4.2344437591 5.4689940806 0.28056307914 1.4464813462 3.216464859 2.7636709073 
1.6726150259 0.8717935897 4.2699281783 2.17309604 2.1867203621 4.8748870569 5.4331027649 4.8652876737 6.3955659771 
3.050718957 -1.7677881848 3.2579806627 1.0163157497 0.055541960907 -1.1903640556 -0.94010210273 -2.0848686531 1.0069755347 
6.4174848854 4.5169587125 7.2283595601 0.43920957129 0.84706482179 0.88858237693 -1.8061630129 -0.44611770297 -1.7656641708 
-1.9572808933 2.0993549212 -1.562598694 1.4320946091 -0.29484573601 -2.0718601364 1.7122919397 -1.3959945607 -0.10819243036 
-1.0853156968 6.6403613124 2.2886205789 2.3498418838 4.8988180459 2.0169210379 2.916505189 1.4735762155 1.5326331628 
6.3127387295 2.9582988153 4.5117774132 4.4130574853 2.5148678969 4.9493509118 3.7515589404 4.8013592739 1.1886162151 
-3.9730896854 0.98413241592 1.658100743 2.3087970451 3.8967090271 2.2307082847 3.8334602308 -2.2286072343 2.1715296563 
-1.7326675313 -2.2867654453 1.0833347541 1.2431014941 1.0254967527 0.17367342499 1.0040041339 1.6714146132 1.3443761604 
4.0398902077 0.10349474823 1.8037996887 2.0249624097 1.5067340362 4.3953615293 1.6291619377 3.6164519841 3.4371219458 
5.7247819146 0.53936181229 6.5407919473 7.4470645228 1.7447654213 2.9150166926 5.1173650343 7.2938710175 5.6133337302 
-6.2415897158 6.1028892348 9.3809172255 5.1557654101 5.6545963828 4.7823543951 -6.2172934047 -3.4448471202 -6.5448741121 
-5.2053222593 -0.57030685416 3.6474827242 5.1986185294 3.7349582752 -3.9231103404 -3.6510741027 1.1846680052 -0.69161575223 
-2.7212791021 -4.0948153116 -2.4651504977 -3.339554525 -6.4573535178 -8.9498812342 -3.4474448729 -3.4023706123 3.8910758928 
0.445087698 6.4359438852 6.0222265289 -1.0416433353 2.3393461475 8.550515538 -5.9612491317 -0.63426391599 -6.5244431676 
-1.4031024927 -9.6134331228 1.0011229391 -9.8394212544 -4.6726356212 4.6779524107 7.0830006274 3.0285009018 -0.010939733941 
0.99243661665 -8.7274251988 -4.7292378589 -5.7506864831 -5.1807745278 -8.4596415482 -7.8676170573 6.4401188686 -4.9435321275 
4.4246666495 6.229460129 -0.20090561355 5.850355385 0.96871304411 0.044183248219 1.0140128416 -1.4328727324 -1.412256633 
0.31507538228 1.648413194 -1.7549493915 -2.5909969622 -0.30745114189 -2.0287565361 5.2592328816 5.7188007131 5.7259600326 
3.9497287157 5.3160182504 2.7582893145 2.0134402803 2.8716405872 1.1067473818 -2.0412932613 6.2418065452 1.8170654261 
2.7765239806 5.1349766752 -3.7172548047 -1.2016821916 -2.7409401509 5.8278868677 1.7172276575 -4.4333886426 6.485344507 
-7.975137345 1.5433037113 1.0201634796 1.8651585122 -3.613572192 -1.2111860463 -5.1043369463 -4.055939885 -2.2782262564 
-6.8626620198 5.9993061425 -9.2476632854 -6.8744730845 -7.1797740926 -4.4294138434 -8.3244082752 -0.87530451462 -1.6969515386 
3.3730926711 -2.5199957751 -4.1300935876 -3.8841199189 -6.7997629655 6.4200893369 3.0223125225 1.8930407467 -3.4704355511 
0.48786158478 0.11141097618 6.9043538767 5.0928880595 7.695518064 -2.1043510778 -2.8603727506 -6.0439574957 -1.8716451944 
-3.5793327582 3.2473346239 -1.3933101181 -2.1035006314 -3.7364351849 -3.0901967118 -1.3794306494 -1.4634858411 3.0644620468 
-1.3314320238 -1.4228522674 -0.079308902963 -3.3107049254 0.76548242638 -8.1729468116 -3.2838830903 -4.4103607344 -0.6691557001 
-0.23680881285 -0.29191285263 0.28938045682 -0.37459769115 -0.18812116258 -0.53017641911 5.5697412416 1.7913363189 3.9736165932 
-2.0179258826 1.1189617257 3.7632484276 2.4154849803 0.0864829365 -1.3748679815 4.2571239176 -1.8217653181 -3.6390464071 
3.0183630001 1.2055517052 3.7194734819 2.6002553032 2.777990332 -1.8393466762 -2.3904449435 -3.7549456571 0.1609858602 
2.4562610218 1.5297923283 4.6549797862 2.4469524211 1.4622489253 2.7804783999 -0.53205357545 0.12572595257 3.2742292205 
2.4257965104 4.9234628084 2.7755693215 -3.1716161677 9.2284315867 -1.9566919845 -8.5961721724 7.1236678237 9.3797864056 
-9.7508845117 -4.9140527975 0.0044580515188 -6.4861891348 6.3413997825 5.7509159366 -9.3022566393 5.3102906773 6.4288094039 
3.6016675514 3.7775189214 9.652679934 -7.9495111469 -7.9714882152 -7.9927777267 -6.5948125732 -5.5247917344 -4.3868320729 
8.4115164935 -3.4375030302 -3.9730133389 -4.7839449541 1.13586555 4.1615634643 -1.8708619192 1.7527624567 -0.45874321732 
-3.6964004548 2.3144734247 -4.7375335458 6.8774435753 0.88841580586 -0.29488176942 9.2210583585 3.0673279746 1.226155178 
1.1221361043 -7.595405055 8.8117295753 -7.2045869112 -6.5426582741 1.6546005035 -1.923100046 7.4287731587 6.3921248276 
-8.9159105712 -4.4491611294 -5.7751212511 -6.679428965 -3.2103311071 -6.120454535 0.53181029795 4.7980589161 6.3527741799 
4.3758789731 2.6881346519 6.6730614897 -7.341964434 -1.0608020925 6.2351134871 3.283761626 5.2257952698 7.4661302449 
-0.7836833254 7.5667304096 0.77696970711 -1.1729156721 -2.4919870928 4.071888052 9.7024327612 -5.0465076304 0.0016538273311 
7.1016557922 -1.8479799165 -2.9582871776 7.9242925143 0.26651388427 -5.9276244493 5.2376247101 6.4104667264 8.7147599236 
0.1229460255 2.8353463749 -3.2308544856 0.0066012924378 7.075878397 2.493357781 -9.0407890745 7.714172524 -7.2365688813 
-8.1372653658 -5.0790479237 -5.4820189589 -8.4049337859 1.8964908918 2.0764353076 -0.73590983763 -1.295534904 -0.63522164498 
4.1472208725 -3.4267434486 -1.2818010377 -2.639336433 1.9991889216 -3.0228255507 3.2685354578 -0.77868371254 -2.0482980544 
2.5037299048 1.1533126193 1.3878821172 -0.052289092478 1.4042250503 1.8117656848 1.5937151461 6.1027079178 1.9760864121 
4.6781620599 3.8849096023 6.2272594189 4.5816796778 2.0823589877 1.5702764119 3.8624105751 -0.45135994633 -1.1800979857 
-0.67213434602 0.54950346899 3.6796162889 -0.78949991497 2.2057646881 -3.9144695944 0.50667503941 0.44829049469 2.2054223408 
-1.7634023965 -4.373625862 -3.6310609676 -4.5284900944 5.4439397316 -0.67174323269 2.5571139181 1.0561262032 -1.4554994521 
-2.3873136112 0.51437738553 -2.5727266681 -3.154299892 3.3776836329 1.2504130884 3.2822374607 1.0563830936 -3.0552608282 
4.8793401641 4.8863021865 2.7856119146 -4.5146198188 1.2357568044 -4.4463201263 1.3648764332 -4.4363879648 -5.8628552286 
-2.3933692439 7.9816477764 -4.9377957524 0.76844547152 -4.8561140184 -4.0305360817 9.0448501986 9.4147326415 9.7797676583 
-2.4328217268 -0.055672335704 -0.58385982047 -2.1873720187 1.1986413998 1.5718189637 -1.1841580433 1.2169887377 0.13120432315 
-1.517084792 0.15238939899 -1.5988986524 -1.9984050246 0.53232118381 0.83653668298 0.97741888747 5.0453034957 -5.0396462737 
-0.8710788296 -5.2092423966 -1.5655430374 0.77568267945 -0.67011735794 0.86982540785 -1.5782808991 -2.234155119 0.6006456091 
-2.8511457247 -2.4189679375 2.6951555282 0.54687724405 3.0659298759 -2.3791989152 1.0761890208 -3.8536294147 -5.225259069 
-0.58409457409 -0.75334896224 -2.3431480425 -1.0754814005 -8.6837996402 -3.7435068357 -2.2445534739 -3.7692361658 0.45411867752 
0.37423031558 2.547658199 2.4878225531 -0.18303139538 0.45265600068 -0.5596076146 2.953091639 -1.0425483881 -1.6043277015 
2.080340934 -4.3606841783 -8.0401160723 -1.0632711061 -2.7561487433 -2.9016556814 0.70931536883 3.7875184584 -1.3697088334 
1.882633525 -5.7767495467 3.0936779695 -7.3135170129 5.7396409309 -6.2429520715 -2.3639546693 -2.1384738675 -5.3258300646 
-5.0660559172 0.021522414296 -2.2120936621 -2.1999656736 0.53326285791 2.7354294921 -3.598680546 -3.4864978729 -9.9331555416 
8.1479671016 -1.4125965893 -9.7944869738 -3.419176149 3.5356089796 1.718780823 3.5628869032 -4.7608218118 -4.4904821146 
-7.2924127461 -4.562424099 6.4765722924 -3.5558744072 -0.53513212793 4.7634398081 2.7771499146 2.90649426 1.0722075084 
3.1615283609 -8.6102418913 -6.8649488126 -8.5408716937 9.8202639796 -0.23880637317 -4.2938922766 8.2220644081 9.5700841881 
-4.6526991261 -9.9147175224 -7.8317244951 -7.3861762123 0.46398474722 9.9473407216 8.786217351 7.6374309805 7.2266206863 
-8.7079485865 -0.43171250369 2.3068823913 -0.81428038646 5.3747421357 6.9354799328 -7.072318666 -9.08718218 -8.8529727128 
-9.7116884268 -9.1008285028 -7.5756179714 -0.22683239522 2.0443256669 -1.4139014325 -1.8433140242 -8.8641423671 -5.646546354 
6.9252719064 5.2004092036 0.33544877439 1.0759026326 5.9757091974 1.1888528999 5.8668564407 0.3627243636 -2.5578068636 
1.4958069048 -6.253992099 4.1164961265 -6.5177221004 -8.2372751202 -8.5135754398 -9.5953875675 -6.5311386285 -8.9041690077 
-1.4911707111 -7.2507676811 -6.8115987662 -5.5757924029 4.4537804207 -9.9984479105 -0.42821954657 -9.1888287779 -8.715731508 
-8.3080546324 -8.7930229376 -7.5954544133 -8.0213607478 -9.3276394098 -4.8136622325 -7.5372064106 -7.5441092871 -7.4228224807 
-6.4200865116 -7.5324519382 -7.6718150258 2.7813478 8.4558013892 -8.0133842492 -7.6595812835 -9.5502031819 -4.7598390963 
-5.4974034328 -4.8192749674 -6.6658152765 -9.2447704547 -9.0748324109 -8.9886479379 -8.2814374821 -6.2302162518 -6.9058953827 
-6.4492443971 -7.5359420561 -9.4610945763 -5.5054225129 -5.5648308024 -0.52659342504 -9.3680450667 -8.2835233876 0.3453119973 
-9.927277943 -9.2509989466 -4.8650511267 -5.497855819 -7.4653836645 -5.8047182334 -6.2937806744 -7.8442642736 -8.1633857275 
-6.574700888 -8.4222332606 -8.4450728241 -6.4431949466 -7.6650669639 -8.0417435872 -7.9587849576 -6.2524047869 -6.4834709434 
-8.4544377356 -6.0332830609 -7.3559226162 -7.0140526689 -1.8702944133 -4.1996794046 -6.697039903 -6.0639763421 -7.8535970029 
-6.6887639987 -8.0143404539 -6.6551421233 -6.505167936 -6.4535690282 -8.7247123522 -9.1454572553 -8.2564132343 -9.834486482 
-8.7599327983 -8.6619618506 -9.5779838968 -8.6505266874 -9.7988487457 -9.5671576552 -8.7617407372 -8.6426545258 -8.5555690647 
-8.6378412131 -8.6131399334 -8.7000245303 -8.6174048878 -8.5965116785 -8.606584916 -8.0728629904 -8.5066979614 -8.265803865 
-8.759851007 -8.1853384617 -8.3132136198 -8.0314826474 -8.1020205566 -8.061643592 -8.4835358683 -8.0249348227 -8.0788565113 
-8.2131712298 -3.0433519132 -3.0383264747 4.523730068 -6.4375003713 -7.7653572124 -7.525988129 -5.9601217856 -6.4242144701 
-6.1754874388 -6.2940797442 -6.5550659504 -8.5831116879 -7.945956919 -8.820780932 -9.2487051422 -9.4563372827 -9.3518650603 
-7.988059218 -6.8310128284 -8.855333964 -7.9088753058 -6.2416953279 -4.7843493831 -6.3890912798 -4.5267010375 -8.2880290051 
-9.5856677985 -8.5691858957 -2.8846010718 -1.8015285391 1.7732686945 -1.6489370549 0.15277939038 -7.922528469 -9.4981194186 
-8.0131553467 -8.172667823 -1.3928892561 -7.7334102399 7.2659048455 -9.1875429832 3.7728579546 7.9160437642 9.0433145618 
-8.6158085259 3.7751319433 5.717036424 -7.3854053163 -2.8268705149 1.5652445542 -6.6429946706 -2.8529592853 4.1775649368 
-0.29673162615 -3.2157785496 -1.4134746313 6.2158144169 5.4427436153 -6.461693338 -7.3581530594 3.8986238787 9.6303590808 
8.7615693158 -3.8681313441 0.17392241952 -6.3804383211 -6.3228828493 -5.850658541 -6.9941754546 -7.5316448312 -6.992190362 
-7.3801691702 0.30937653267 -8.9990349886 -8.2791206301 0.39924043829 -9.1859014984 -9.5908693443 -7.8266320571 -8.8546340195 
-9.3328128664 -7.1217979858 -9.2958692481 -9.2836536057 -8.9800319921 -7.0825604817 -7.026696502 -7.532172542 -8.9070934035 
-7.9928244208 -9.3971903627 -8.237360867 -7.3718598151 -9.5340254237 -2.8470816585 -9.6820124111 -8.7155785842 -9.6721893821 
-8.3556171463 -8.2508527421 -9.4244597181 -9.3705686144 -6.753742199 -9.5208354754 -9.422408001 -4.1765691514 -7.1381022696 
-5.1545437846 -3.9180607268 -8.7493443629 2.0731440584 -3.4925282081 -8.1844087429 3.7087321532 2.1546293604 2.4622871852 
-4.0416101476 -5.1806977717 -4.0624341729 6.7183276605 -8.6607703958 -4.3427692562 -7.3493741363 -8.5155952408 -9.6617272004 
-7.5488864425 -3.957634056 -7.7848618884 -9.0376273323 -9.4445000907 -6.1466699411 -9.5504713555 -3.6962522915 -7.8586373066 
-6.5562012153 -6.5222707025 -1.734528108 2.5190045722 -9.2145510527 -2.0963548073 1.0799356173 9.1831313653 4.1272779284 
-7.6826014071 6.6231141246 -8.6272151829 -6.5914526466 6.8199434372 7.3530496709 0.30623939534 -8.6155270114 -0.48835001973 
0.79025452932 -7.6629444394 -8.0681272772 -8.7713196715 -9.2139249783 2.0562972805 -2.3345906188 -2.2689274655 -6.760165283 
-4.3664107161 0.34199926571 -4.4968783291 -4.9117972682 -5.8412359085 -9.721245569 -6.3361294347 -1.210847805 -8.5300681884 
-6.8672102377 -2.7518793789 -6.9896429858 -7.8280608154 -7.0617511272 -7.6984830695 -6.513214463 -8.2900178596 -7.7169055045 
-9.8374487825 -2.9015203525 -8.6417088573 -8.5773344926 -8.0240020653 -9.3310329324 -7.8054769003 9.0036776217 8.9792159095 
-7.698024 -3.9653139806 -7.6221390906 -8.1815836699 -7.2297898841 -7.6703012459 -9.1468909118 -6.9124465936 2.46108776 
-8.8320798053 -7.1024970705 -9.6038141748 -7.9035139626 -3.4510682082 -7.7038324901 -7.0217968353 -5.280766095 -8.4967423805 
-6.6702056785 -5.4369669975 -8.8980876587 -3.3477630376 -8.7642708688 -9.656543763 -9.4402250811 -2.7580352158 -9.805629483 
-9.4033443686 3.0011279756 -9.9820721357 5.2147273384 -3.1373313528 -6.1325729637 8.9940845327 -4.298754089 7.8336234898 
-9.4906824148 -8.1259167994 3.6408706528 3.6611243144 -6.9905971084 -9.2582780409 -9.5127888497 -9.9638503799 -9.198241849 
6.1122533877 -2.2524851869 7.3208872975 -6.8283450132 -9.7560339277 -9.2678278379 -7.3309270477 -4.5513605237 -9.49642118 
-8.9326986918 -3.0893386332 -9.6509113553 -9.3747076546 3.154810557 9.3558312852 -8.7454941815 -9.1615424603 -8.4401200498 
-9.4275949261 -6.5856069211 -7.9251336857 -7.4799058731 -6.2167871542 -8.0582583653 -1.9009966534 -9.1634998763 -8.0364586227 
-6.6969742802 7.0802399688 6.2149011039 6.562196015 -2.8666590344 -1.977847032 -1.8175066422 -7.7172530251 -2.0625168987 
-2.6771154089 0.64878037613 1.4887100559 -3.746240047 -8.5790173608 -5.7918415534 -9.5447147966 4.3403289647 4.1530246944 
-0.46811294183 8.9445405265 -6.8943267153 -4.4881950737 -0.17185287016 2.8005583175 -4.6748782802 5.6513039806 5.8419255762 
6.3435618871 9.4333360728 7.4084047964 8.2323730141 7.8536204122 0.26269520167 0.1311036956 7.5908734114 5.3285502873 
9.4961584297 9.7573041642 9.9646335404 9.9573051944 7.7208912615 7.5573561647 8.4618488981 8.1340364196 9.9212914642 
7.6617001382 9.6346108344 9.8231940666 7.4055950434 9.9183818333 9.9656274934 9.8928361393 8.0500139308 9.1949502796 
7.5249589275 8.0947226291 8.5252590788 8.5388982933 8.4216239008 8.2967764153 7.3474639316 7.6838331202 8.9660153766 
7.142709137 7.5316017795 6.0432551644 6.7182850767 2.0031749346 9.5298288837 8.239157991 6.0698526384 8.5193454734 
7.7997993818 7.5242603741 8.1550674681 9.8322199967 8.1554460313 8.3344414115 9.8506476204 8.6611470999 8.8077378202 
8.8043453513 7.2657400431 9.6117425132 3.210417014 9.7732663907 8.2999771929 6.9159674657 9.3896287511 -0.68277359422 
5.9262942962 9.8832913755 9.7719505039 -2.6754949763 2.9270501998 5.625104308 9.4261227264 9.4479823217 8.9974924811 
9.888505767 9.8232153697 9.7203222618 9.8769426073 9.3597403901 9.4800017483 9.3759940285 9.6298959252 9.3079314389 
9.7772466618 8.6019029626 9.6037403946 9.7405428818 8.3133546701 9.2840537426 9.7930249222 8.6671095748 9.3957310215 
8.8082676543 7.6709049663 8.8514184777 9.810284349 9.1265146188 9.942982876 9.686783591 9.9753709938 8.5527610101 
6.7109059906 9.768662928 6.7603021929 7.3045878923 6.921901015 7.7174545182 6.7468500467 8.7273431757 8.1409262429 
7.5973829773 7.3123546681 7.3366400048 4.1796071204 5.7276840701 6.3536649116 6.9813007631 6.7881442562 8.1613332034 
8.5613030103 8.2202107829 7.3007830701 9.7366799347 9.9572598451 9.4894559832 8.5903295577 7.1921439761 6.8478180735 
7.2995284336 9.8940897909 8.6291327888 8.2212934294 9.2046510074 9.3533466526 9.7174270951 9.6357505119 9.437807276 
9.6044923084 9.8712812046 8.2327765974 7.8736279221 8.1699849784 9.76349323 9.3083402921 7.1749051874 9.6634750847 
8.8173189466 9.8459155089 9.0103516558 9.450661346 9.3414554499 9.5939567887 9.3816701335 9.9597923825 9.7616944191 
9.6600381093 9.9634706381 9.6823756621 8.8534626268 9.7172988879 9.6838063404 9.0658725909 8.3986847688 7.0175780977 
6.8907638594 9.3814153398 7.2843696911 8.826487297 9.500150869 8.1292281716 9.5202262412 9.1917359795 9.2844776879 
9.5997255394 9.5087476465 9.3193590211 9.3732961831 9.6116601766 9.266211504 8.2170734636 9.0409529084 9.8608479447 
5.5975764896 9.349938397 9.8386944422 8.478359393 9.0534166748 9.5692574405 9.2188454208 9.090802071 9.9067346794 