# vtk DataFile Version 5.1
vtk output
ASCII
DATASET POLYDATA
POINTS 1244 float
-1.50941 -2.34447 -2.07431 -2.53442 -2.94447 13.0245 -3.51057 12.8735 -3.26382 
-2.65214 12.5088 13.1312 12.4764 -2.62488 -1.36781 11.923 -3.16554 12.75 
11.7541 10.6839 -1.77201 11.6236 13.2938 11.75 -2.24686 -2.34279 -0.87729 
-2.37337 -2.17449 0.75406 -2.27469 -2.1287 2.53257 -2.14754 -2.16294 4.03852 
-2.03373 -2.15173 5.65026 -1.80928 -1.82766 7.41206 -1.61036 -1.92954 9.15714 
-2.0329 -1.85825 10.633 -2.20307 -2.93083 11.2969 -1.67372 -1.43921 -2.01225 
-1.43793 -0.0761571 -1.60667 -1.03604 0.964416 -1.18522 -1.27989 2.74187 -1.1558 
-1.84796 4.39259 -1.7603 -1.62653 6.12047 -2.53724 -2.69075 7.60964 -2.78964 
-3.19713 9.3301 -2.30063 -3.23736 11.1135 -2.57022 -2.69956 13.3145 -1.44393 
-2.64034 13.5398 0.375805 -3.7269 12.4513 1.8864 -4.15402 10.5903 3.4322 
-5.44666 8.8066 4.79764 -4.59148 10.7603 6.42716 -3.58884 12.52 7.89757 
-2.61262 13.2525 9.5714 -3.20036 12.7314 11.4058 -2.84203 -1.21496 12.2041 
-2.80512 0.151264 11.6548 -2.1281 1.20233 10.9132 -1.92573 2.68049 11.1922 
-1.64599 4.3692 10.6968 -1.91392 6.10705 11.461 -2.03057 7.99287 11.3747 
-2.95266 9.29658 11.6501 -2.78869 10.7905 12.6885 13.16 -3.31078 -0.205481 
13.0584 -3.51661 1.48846 10.5109 -4.54389 1.59467 8.62423 -4.18397 2.39196 
9.31159 -5.02994 3.6218 8.56826 -4.14459 5.40262 9.62677 -4.35404 7.43988 
11.2873 -3.6293 9.4574 12.3999 -3.53396 11.1116 12.2333 -1.28844 -2.02421 
11.3512 0.0854084 -1.63905 11.5232 1.4628 -1.73604 10.8574 2.91901 -1.53251 
10.9014 4.53201 -1.98522 11.0014 6.19833 -1.82817 11.2684 7.10845 -1.52023 
12.5956 9.11806 -2.19883 13.1561 10.3999 -3.44625 14.1695 11.6858 0.371371 
9.60247 10.0199 0.673565 7.07576 7.34167 1.0227 6.08699 5.91983 4.16273 
10.0868 4.50451 5.38433 6.30924 7.66748 4.74074 6.19713 6.60273 7.2844 
7.96826 9.79629 8.22222 12.8605 13.985 10.4475 12.1116 -1.45861 11.9427 
11.8687 0.503755 11.563 11.5586 1.49565 10.847 11.4827 3.37927 10.7816 
10.8335 5.20719 10.95 10.7482 6.9959 10.7799 10.5914 9.05763 10.3787 
11.0211 10.5745 10.6581 11.5823 11.5917 11.1375 -0.659559 -2.50889 -2.93771 
0.610947 -2.46384 -3.63359 1.76683 -1.99583 -2.6751 3.37129 -2.81047 -1.98888 
5.01903 -2.69273 -1.85575 6.58808 -1.7234 -1.51118 8.29954 -1.82233 -1.76983 
9.73807 -2.21439 -1.57764 11.0494 -2.52084 -1.70955 -0.931831 -3.05908 13.462 
0.960368 -2.58529 13.2175 3.57941 -2.47672 12.6898 6.32422 -1.21424 12.774 
5.31605 -5.12714 12.6657 3.73842 -4.60711 9.7304 6.08688 -4.34075 10.8273 
7.7041 -3.32034 13.2838 10.0413 -3.63465 13.2376 -1.54016 12.367 -3.00585 
0.121969 11.4087 -3.56824 1.98338 11.2363 -3.22877 3.34713 10.7716 -3.46475 
5.21559 10.5982 -3.61516 6.98334 10.8084 -3.65289 8.11921 12.4884 -3.52804 
9.9783 12.3768 -3.02505 11.6085 13.5653 -2.77552 -0.402951 12.7851 12.7841 
2.17085 12.0837 12.7833 4.70359 11.0851 12.1419 5.09296 8.29659 13.5155 
5.21501 10.5451 14.0861 5.27027 7.81894 13.3717 6.85477 9.08012 9.7045 
7.9196 13.7989 11.8949 9.58508 12.8716 12.4931 -1.651 -0.704569 4.90611 
-1.92481 -0.817008 1.24953 -1.25728 5.98651 0.0069425 0.91093 9.79922 3.59297 
-1.20388 8.58094 -0.151071 0.0391952 6.18213 8.05571 -1.09232 8.70059 9.89165 
0.100546 9.02309 4.56576 -1.64494 -0.951781 8.30657 -1.56195 3.05764 10.1014 
-1.71663 2.8928 -0.431614 1.0441 6.22789 6.53314 0.85084 3.48162 4.37875 
0.202127 2.72643 5.56295 -1.93858 -0.77082 9.8985 -1.81647 -1.18636 6.50794 
-2.14333 -1.24185 3.35412 -1.71773 -0.843064 -0.526372 -1.10219 4.57653 9.12961 
-1.48455 5.27384 10.6271 -1.14401 6.7277 10.1728 1.91665 5.87264 5.99039 
0.574197 8.11304 7.63319 -0.779975 10.0848 8.93153 -0.920488 11.5302 7.85039 
-2.97758 7.45416 5.63106 -1.46344 4.46309 0.661884 -1.63252 5.56197 -1.823 
1.08971 6.7316 3.31665 -0.51903 7.23432 0.574494 -0.130096 8.6169 1.35848 
-2.94365 10.5087 4.31506 -0.875959 11.937 1.66449 -0.962249 10.5822 0.511497 
1.00172 5.71046 3.26836 -1.52857 5.43539 3.35665 -2.01809 4.32984 4.6634 
-0.27225 7.79038 3.23318 -2.18678 7.03556 4.09957 -0.948227 3.84641 2.0178 
-0.713274 2.43177 1.41279 -1.35997 1.07596 0.708792 -0.878358 1.13318 2.22487 
-1.25484 1.39456 3.85882 -0.876764 4.49859 7.60842 -0.837344 2.66314 8.09241 
-0.474934 1.09057 5.88658 -1.05383 0.795241 7.49895 -1.47721 1.16741 9.06677 
1.56175 2.92047 3.71525 -1.46387 4.77157 4.92979 -1.28625 4.11852 6.95522 
-1.58398 -0.618378 8.97271 -1.40176 -1.02501 7.38916 -1.71811 -1.26023 5.77448 
-2.09782 -1.2338 4.42099 -2.36168 -1.32571 2.03048 -1.78022 -0.585067 0.420596 
-1.75056 4.10923 9.69584 -1.5188 4.24075 10.5068 -1.21222 4.97897 9.80421 
-0.516756 5.37542 8.25706 -0.751452 5.57666 9.00875 -0.27155 6.25444 8.6256 
0.92208 7.18891 7.27877 -0.345091 6.81759 9.43929 -0.826151 7.89063 9.57393 
-0.204714 7.94133 8.56819 -0.323127 8.50133 8.89519 1.05077 7.01936 7.32823 
2.22222 7.43383 4.13178 1.33473 8.4498 6.23587 -0.795485 9.09279 9.47995 
-1.72968 10.2622 10.1796 0.389016 10.847 6.17488 -2.26627 10.0376 7.05935 
-2.90761 12.0419 6.43333 -0.660341 10.6427 8.45216 0.352448 9.64802 7.45455 
0.00634174 8.95947 8.18894 -1.66669 6.97554 10.9541 -1.23909 5.79487 10.26 
-1.47713 3.75576 -0.0953634 -1.60436 4.40093 -0.782311 -1.42065 4.90666 1.6458 
-1.60924 4.9881 -0.0514701 -1.36783 5.76491 -1.22208 0.348227 6.33447 2.18103 
-0.313948 6.71629 0.744168 0.329662 7.15511 1.81128 1.08384 7.98265 3.22024 
0.458562 7.77405 2.19317 0.666281 8.78444 2.43931 -0.218901 7.91652 0.935818 
-0.980996 7.60077 -0.186721 -0.782488 8.36 0.44308 0.371243 10.4835 4.57836 
0.135172 10.9999 2.72493 -0.792666 11.1387 3.30385 -1.05194 9.29185 0.244121 
-1.48061 10.4232 0.0630526 -0.3478 9.9768 1.30752 -0.558376 9.35937 0.978065 
0.062847 9.41529 1.97575 -1.14849 7.11444 -0.987072 -1.04083 6.62412 -0.886139 
-2.13184 7.6299 4.68638 -0.785066 9.08796 3.42715 1.43007 7.86959 5.71694 
-0.501297 6.57407 5.31578 -2.75917 7.02274 4.31469 -0.0422533 8.15887 6.25773 
1.63338 6.04595 4.823 0.671529 5.5245 3.46065 -0.971376 5.84335 0.55228 
-0.186068 3.57562 6.17866 0.910117 8.27476 4.23999 1.76069 5.702 3.86533 
-0.0621782 5.20129 5.96348 2.60906 7.7285 6.84394 -2.07768 4.50636 4.9184 
1.69397 5.79357 5.47088 -2.11397 7.1746 1.3133 -0.141443 8.17088 4.4366 
-0.787762 6.06272 7.23293 -2.41851 8.48978 5.70006 1.05593 7.69379 6.93222 
0.209588 4.52162 6.18021 -1.75341 5.33205 2.45996 -1.00819 3.64198 1.42045 
-0.925619 3.28404 0.833581 -1.15132 2.69223 0.420428 -0.32264 3.02153 2.04316 
-0.053611 3.88913 3.34009 -0.0236773 2.75824 3.08587 -1.35649 1.94631 -0.182348 
-1.44746 1.16359 -0.239024 -1.45497 0.371305 -0.0869187 -1.63531 0.164042 1.15447 
-0.283179 1.56611 2.87161 -1.15413 2.21827 3.33909 -1.59641 -0.606733 3.03469 
-1.41172 0.270965 1.90535 -2.03938 -0.961369 2.35548 -1.59827 -0.0995243 3.78921 
-1.32524 0.448524 4.39705 -1.09749 1.23148 1.5172 -0.586779 2.03888 2.07758 
-1.15632 1.90257 0.85183 -0.859592 5.31992 7.40326 -1.13162 4.39153 8.50244 
-0.753611 3.61011 7.3484 -0.725371 3.32201 7.86133 -0.32342 2.7042 6.90187 
-1.07051 3.47405 8.777 -1.35751 2.9409 9.04181 -0.303208 1.93327 5.99959 
-0.551544 1.90361 6.88762 -0.748036 0.881534 6.75077 -1.32491 0.0646742 5.5609 
-1.2539 -0.0656731 6.23521 -1.32461 -0.0146214 6.94791 -1.3789 -0.0343235 7.97469 
-1.57112 2.34575 9.53288 -1.74227 1.16477 9.80322 -1.44055 0.343227 8.811 
-1.8296 0.200488 9.84598 -1.21236 1.08648 8.23129 -1.16415 2.0253 8.68266 
-0.828776 1.96549 7.66299 -0.880333 0.599512 5.35935 0.390137 1.93962 5.3363 
0.649487 2.90753 4.48149 -0.570319 1.61361 4.49583 0.547452 4.72613 2.43455 
-0.557241 3.83513 6.66022 -1.10528 4.77564 6.83304 -1.58982 5.57364 6.34556 
-1.79076 5.36288 5.2812 -1.74922 5.24799 1.42262 0.601533 5.01619 5.7296 
-0.799936 5.60811 4.07649 1.41024 3.44112 6.42844 -1.90609 5.94334 6.25833 
-2.15217 5.66868 3.51834 -0.956171 3.46455 1.00676 0.484521 2.44431 1.90797 
-0.234837 3.63061 5.56189 8.75958 -1.79808 4.73528 10.7263 -0.853781 1.73129 
9.65737 6.0344 1.2254 11.6323 9.46848 4.0875 10.1086 8.46729 -0.494123 
8.95 5.8865 8.45041 10.7059 9.17148 9.64529 11.0437 11.4434 5.73793 
9.51969 -0.632233 7.57577 12.0533 2.35113 10.5614 10.6852 2.93002 -0.448834 
8.39723 7.69452 3.04444 9.63231 2.93118 3.40458 9.19871 4.82068 6.93343 
10.7545 -1.20081 10.3858 8.70835 -1.47895 6.39645 8.42853 -1.91887 2.81234 
11.0732 -0.218543 0.160465 10.373 4.63598 9.868 10.434 5.9577 10.3709 
9.80301 6.96502 8.78979 8.11828 7.73275 5.76061 10.6729 8.90401 7.1938 
11.2407 10.2553 8.4942 9.87703 10.1006 8.7361 10.9841 10.4473 7.3985 
10.0859 4.40881 0.321804 10.4591 5.49301 -0.960051 9.40975 6.69914 2.5845 
9.33397 7.32276 0.593287 8.54272 9.05498 1.66008 6.86611 9.75627 3.07491 
7.64 9.81012 2.43858 10.3127 10.8798 1.08616 10.1846 6.86157 2.56786 
8.36246 8.83114 5.3999 10.068 5.24099 4.27688 12.2239 6.55581 7.81191 
10.0013 4.75281 5.43073 9.5605 4.18497 2.05436 9.90147 2.57824 1.09806 
10.4207 1.12089 0.333519 9.20856 0.951927 2.19739 8.87819 0.759887 3.64494 
8.21943 3.20426 6.85124 11.3538 1.88791 8.08974 8.63203 1.01144 5.90317 
8.9917 1.32081 6.92855 10.7887 0.379707 9.34805 9.8468 2.28693 4.86911 
8.39026 5.8224 6.25764 8.99516 4.92546 4.51364 9.97081 -0.460617 8.49889 
9.06996 -0.792825 6.92637 8.54319 -1.1645 5.82267 8.60675 -0.976616 4.0549 
9.52247 -0.307352 2.21995 10.7951 -0.273042 1.03823 11.6421 3.21016 9.71856 
11.4285 4.42033 10.3873 10.3672 5.51912 10.1032 9.52254 5.19951 8.98506 
9.64416 5.91924 9.38897 9.16716 6.72109 8.1399 8.58486 6.82612 6.97723 
8.83284 7.30961 7.45062 10.5259 7.75868 9.68959 10.071 7.77828 8.70556 
10.4473 8.36134 8.76481 9.81656 7.8789 7.70939 7.50001 9.31309 4.40415 
10.216 9.05969 3.28723 10.8194 9.35997 9.06361 11.1709 10.345 9.42112 
11.0771 7.2466 8.37062 6.45549 8.79401 6.9357 8.61404 5.12107 6.46909 
12.012 13.1796 7.29345 11.5225 11.0689 5.24608 10.9121 9.57142 8.03779 
10.5168 7.36369 9.80191 10.1243 6.54021 9.67649 10.259 3.86551 -0.0830428 
10.4082 4.29831 -0.870373 9.98921 5.05061 0.79816 10.2154 5.04515 -0.512677 
[...]
CELL_DATA 2484
SCALARS scalars double
LOOKUP_TABLE default
-0.72186209781 -0.016943755258 2.3264783908 -1.2907792319 -1.9917507544 6.2848275809 1.5959744243 -1.7162522793 3.2565280343 
-2.7857332659 4.0137894674 0.36005751845 0.68051973244 -0.049222860776 -0.72164969665 3.4725701053 3.6137446042 3.8967869156 
-1.8131700652 3.0963855909 3.8420351247 0.24445490023 3.1495161138 2.4216817049 1.7828413387 8.2268823721 -3.075925754 
3.3176889649 3.0099935847 2.0265931108 4.6093569678 2.3772080006 1.5843254089 -0.2145914141 1.3761477604 -1.1603115491 
3.3585943848 6.6642099325 1.3130522792 4.5863726825 -0.39107232407 -0.22235110028 1.9150898431 1.2288319332 -2.5510478418 
-2.216791902 -8.0585553919 -0.84159697679 -1.4459299598 0.12258674796 -4.5592363067 -3.2425832305 0.56192927499 -2.9309485331 
5.3473227131 -5.1466607168 -5.6823678126 -1.8612859382 1.7767555197 -6.3873526593 -9.3596183507 -0.86239176549 3.4951619935 
-8.0368524558 -1.7273719256 -7.0064113822 -9.2861609059 -4.4123143296 -4.3999934183 -2.6617240028 -4.6751603327 -3.0798966459 
-1.8065110801 -3.5103319247 -2.5807887195 -2.1122062858 -0.3510427988 -1.7360709948 -1.8182942571 -2.506391428 -4.7358600727 
-2.2096142617 0.6713706732 -0.51217859007 -4.7304204208 0.41373920102 3.0557355638 1.5926653544 3.7318307554 1.0771587789 
0.54929980737 -0.32862703501 0.31600280407 -0.76561668286 -2.3360834588 -1.0992117382 -0.88415345733 -2.3753401236 -1.9220597601 
-1.3362714307 2.2014556963 5.3332079587 4.5489052054 1.8659733469 -2.97848271 1.84472598 -1.3512728326 4.1251271845 
4.8236628991 1.9963752732 -1.4337976656 1.8355922637 0.35622988285 -1.5721371307 0.21864688375 0.51676362561 0.78845968995 
-2.7232219548 -2.0800819877 -2.951058342 -1.6267824877 0.60755418502 -0.79074930167 -1.0220675894 -5.6918470022 -8.7697304204 
-8.4244231887 -9.3348418482 -7.1958426562 -8.8603716935 -6.4743368085 -9.4778479115 -1.1548667611 -1.3182309011 0.97969657775 
-2.3736312645 -1.5286708779 1.0207747001 -1.4946898564 -5.2163677718 -3.0769700434 -0.58798188384 -7.3047509457 -1.2426202699 
-1.4544957494 -1.1694487386 -2.2784975641 -2.8008911277 -2.6235516072 -2.5779110001 -2.068185459 -2.991111439 -0.40589383209 
0.077054794988 -3.1787458992 -4.5572782337 -3.7528717898 -1.2713144128 -2.1754690261 2.2035327843 8.2274282544 1.8996234872 
3.0811144173 -1.2332137597 -4.4103717897 0.88738926036 -1.9393312997 -8.4259314822 6.0083953854 -4.2246689062 -1.5148555813 
-4.3576246724 4.2224936686 -0.15171022392 -4.7135204216 9.4154432636 -6.5199425949 5.703932112 -4.0837335784 -8.146158806 
-2.4880321076 -6.0461238421 -0.18145567447 0.22456338576 6.5731896048 -4.7092918142 3.4104693639 3.9002972811 9.196533344 
4.5058415173 4.0753957684 -7.9079159171 -2.8182466584 1.2802752967 8.2428365488 -6.5404743214 3.3965348599 6.5917852423 
2.9947152926 -5.1535033961 -3.0634207518 7.2298319344 5.6202237483 6.396670462 9.5645950986 -7.5434506468 6.411078294 
7.4714276901 7.592018917 7.4272885897 -2.0296371801 -0.93328523341 -0.71939774449 1.9826513615 -5.7726395564 -0.67026622865 
-5.1813757546 1.4513712692 2.7603709276 3.3784925328 -8.6541465319 0.72739048033 -0.70301106876 -3.2491845463 7.3320961434 
0.039179400137 2.8626775077 4.9159485941 -9.678218212 1.242904413 -2.4473298897 -3.3496443337 -5.1870995944 -2.6079674196 
-3.4849317466 0.1448193042 0.56170252557 -0.21124328838 -5.1673296468 2.5517181026 -1.5816978 -0.82881362461 0.92830437881 
-5.757177072 -3.9835406476 -5.9164404813 3.6939735405 1.0761174288 -2.3696764288 1.2308518614 2.4264248317 2.5526682223 
2.7379655161 2.7605430897 0.2755681019 2.277572812 6.0750058713 2.5456629355 0.26394408948 4.9885693587 1.4969088847 
1.5695864435 4.8691042037 4.9616859548 6.1329816122 5.0975866481 2.068806417 4.1930725288 3.9487336713 4.1749394632 
4.228932083 2.28171569 4.7762404727 8.1549092054 2.9594825081 4.0921879325 3.7860826465 3.8068222915 3.3783358651 
0.90577607551 2.568968716 1.2123017693 2.0282271627 2.4856632575 -1.8392945986 1.118323022 3.3879134579 1.8581457333 
3.371280312 2.9518644521 5.9115083697 -0.49717847628 5.0700284199 5.5796812106 -1.3169924198 -2.5109346143 0.17235653113 
-3.6161695872 1.9238404801 1.941262004 -2.3348822849 0.97418943494 0.33292978601 -0.48149691841 -1.8315437583 -1.5932121445 
4.2979727258 2.2493154378 2.2165108072 2.1546857858 5.8788559325 3.000539158 4.1101689814 3.0423271995 3.4301987338 
2.337397085 1.7871986167 0.53560512087 4.220672906 4.7319089074 5.2422290264 5.1810927516 1.5224975217 0.58794874091 
-2.0770086219 0.13460716554 0.64849230641 1.500348502 0.86309040126 0.82402073556 0.85816110777 0.70037899819 2.1757807673 
-3.4076128334 0.68405762983 0.52811053062 2.0422390901 1.7934982233 1.1325620531 1.7624058857 0.036897050804 -0.2489343818 
2.2359531537 2.2280044677 2.6256727291 2.6302521331 1.8359102107 2.1970787903 1.9845508663 1.9987670176 3.1238051707 
6.3855784132 2.7520878286 6.7137266015 2.3140057063 3.9285675175 -4.5303558791 -4.1441825871 4.4824711151 5.6214234216 
-6.0398920288 5.8859171192 8.6649891101 6.0277097396 6.8498537929 6.0593290516 -2.7303288572 -1.9492530775 -5.1872643471 
-4.1515829338 1.6314439854 2.2277874672 4.1255485145 2.1053191409 -4.8611500865 -2.5556068968 1.3443752004 -1.8629168112 
-0.88475221199 -5.4731745351 -4.7769944786 -3.89586538 -5.0951899983 -8.8888919474 -5.1535883969 -5.0988798163 4.2310447847 
-1.1787446313 6.6411981811 6.3844416747 -4.2024669387 3.926736723 9.664733416 0.52565876904 0.21402008079 -7.157480894 
-4.2002334334 -9.9027810001 1.3145304773 -9.6974965192 -4.0984923973 4.477516216 6.7158259055 1.8823719039 0.98724052926 
0.24275420038 -7.4590854961 3.3062088423 -2.1044400762 -7.3448130365 -9.5271444204 -6.895746954 7.9847643769 -7.702633259 
1.3236331455 5.9387195767 2.730414014 5.4385604733 1.0793192068 0.3912615256 1.2043918928 0.43936879429 -0.49488780862 
0.27474645019 1.7263544395 1.2677564936 -1.3965782512 -0.13770866316 -1.2449869659 6.4737873178 5.1199437823 5.652144132 
3.1865055739 4.3231913282 3.5143533599 1.9744136816 1.2593034167 -3.0754664794 0.48754645341 4.8988280101 4.7530511923 
1.0124868611 1.7136271963 2.5942581658 1.970113642 2.2623899174 2.3041478787 2.4139613171 1.3333663712 6.6473005335 
-3.762818386 -2.954027124 -0.72440775673 -0.18481309847 -3.2381284998 -1.2975353486 -5.3652005555 -4.7489234039 -2.4787892564 
-6.6976185685 7.3522993172 -9.4225126655 -6.9102687493 -7.3796407478 -3.0440734562 -8.1863288447 -3.7234270653 -3.6789779461 
-5.7872309231 -3.4406892289 -4.7725466069 -4.4378810869 0.80115922267 5.2899541929 2.8630476138 1.5209707173 -3.3266997961 
1.5205346091 0.89847060055 7.4726959093 4.2347116772 7.6431217814 -2.8944818555 -3.1613439209 -5.6631231209 -1.2286957518 
-4.5528634304 3.2610840296 -4.2930942742 -3.5179190631 -3.6493005815 -3.5226770501 -3.5378721891 -3.2149194055 4.5936949599 
-2.7985759099 -1.29264685 -1.6808840328 -2.9533913942 -5.0722961092 -3.9399208562 -3.0521538679 -3.5575445838 -0.16644144147 
-0.84207181101 -3.615743075 -3.2539175526 0.31612505602 -0.89296843208 3.9544527107 1.2093174284 0.92972948241 1.7545791566 
0.22324653409 3.0356473576 -0.4004600225 3.9333493106 -0.96911827666 0.38426019394 -0.524823544 1.2938367919 3.6369127796 
0.5333579328 2.6144724416 4.6860104655 3.2979927523 0.97888509656 -4.8576773177 -1.3871862114 -5.0338363809 1.3400358281 
5.6066016122 1.7421449204 4.8934688541 5.6458822193 2.592345828 0.99159193574 1.5333834655 -0.021081563037 3.0441733936 
2.4183200436 5.212291908 3.0188724213 -3.1600546882 8.9850095349 -2.2066308117 -8.7559796231 5.7465459529 8.1682231133 
-9.7992558338 -6.4592269765 -3.2221497499 -6.1633667886 6.2761180939 5.920228624 -9.3635693888 4.9459770513 5.047612018 
2.3808867611 3.9159537191 9.4870923183 -8.1512225869 -7.110362606 -7.202128598 -7.3667954528 -6.7805292227 -5.7537566887 
9.3769923137 3.4659683698 1.3879668058 -3.360149675 -2.3640843679 4.9479203439 0.66007843777 0.42696508429 -0.56221935154 
-0.40432140982 -0.71971611971 -3.9516065962 5.6447117856 1.0157896427 0.44901004996 9.0539668778 2.4970925145 1.3226374737 
0.6838495377 -7.4983155518 8.8821397632 -7.6012925368 -6.5896556303 1.6236614104 -1.7479846271 7.6535932501 5.5406764167 
-8.6952763123 -3.9912909044 -3.4928947591 -8.1763090262 -2.3430786041 -5.0825320355 5.1890027152 3.6604619262 0.10746673334 
2.0322627475 1.6891781825 6.9096012554 -6.8991426095 -0.3183338596 3.3704355264 3.1632086893 7.1085083577 8.1042144943 
-2.4532065637 7.4614048397 0.78512524393 -2.4756150545 -2.2299626158 4.8054008691 9.8161802975 -5.8716120521 0.75629365341 
7.1420088626 4.8701582352 1.994431211 7.2637159607 0.66682957501 -5.3607191397 5.2920190202 6.3430118906 8.4151766933 
-0.60694762096 3.7152753528 -3.2447517322 0.78682240533 6.8778654245 1.1474139065 -9.6991278316 7.4231052672 -7.5972798707 
-7.9635634733 -4.1607038615 -6.2054130824 -7.630378435 1.8743801873 2.9334886698 -0.88726088545 -1.6332423075 -1.5611922886 
1.4027678177 1.3817762618 -1.5806427501 -0.50132248097 -0.76996124134 1.9886532951 1.5304890198 0.88291928231 -0.80389610513 
-1.1631181361 2.3289459514 1.0279009014 -0.58861187013 4.0993627982 -1.280177923 4.2834399849 1.2510902377 5.7112225996 
5.4408029167 6.399657633 0.60123054854 5.7365337426 -2.999090618 5.8619928596 1.1449627178 -3.2030361822 -3.0599155838 
-3.0591079542 1.8935222594 3.2687607367 -2.8134261421 2.2303931595 -0.86677171954 -2.7382926409 1.6945704069 -0.45056079604 
-3.1853969668 -0.74103869733 -0.71703762502 -0.72882055122 5.4315420572 1.8029204359 2.6163644674 2.3980157058 -3.5540820874 
-2.4162950537 -1.1698629588 -1.3280870987 1.6905933735 1.2637304936 -0.96138368785 1.251258979 -0.28466519458 1.6655298037 
0.67647855742 1.4332183109 2.910331382 -0.91411319394 1.2876713702 0.41707154379 3.6218041953 -5.5108630552 -6.0274073386 
-4.60629371 6.2100997949 -3.6369421351 3.0126034937 -6.4086741881 -3.7428467329 8.8149825824 9.2080772101 9.5994880587 
-1.0514439295 2.2264338968 0.079832977857 1.242223515 -1.2234801649 -0.09975406127 1.7288103792 0.22676426571 -0.11946990769 
0.42504979042 0.93206387009 0.67671340506 0.73016868393 0.13108004391 -1.4232277639 -0.17914360054 4.7305467039 -2.2125937832 
1.0299979259 0.014982158397 -2.7448594472 -0.22081207459 -4.0795881379 -0.51146001515 -4.8656368965 -2.7420434546 1.154241719 
-3.7775797636 -2.8296684768 -3.6461797797 -1.2233494273 -3.7010103755 -1.2814430263 -4.6073208399 -2.7730647307 -3.923369737 
0.023487134446 -0.042571205713 -1.0707285563 -1.5624758242 -8.0763426383 2.0549038747 -1.25997368 2.0135402727 1.5371721602 
-0.10791437378 -3.4179577799 -1.4199911211 1.9902161118 -0.25554462769 -2.8917031101 2.9217010411 -3.3013942124 -1.6711923836 
-2.7281398974 -3.6825895809 -7.9036237592 -3.2861903916 3.4159207776 3.0079101344 5.4986220889 3.6861584851 -3.3087308056 
0.26563850536 -5.8075253134 0.68889098526 -3.9901988087 0.74430022131 -6.386512161 0.4344856362 -1.7834969183 -4.4571126962 
-3.0912859768 0.42069736813 -2.5181520547 -2.2836567161 1.9588143215 5.1109956334 -1.7443830705 -2.4411993634 -9.1551969678 
8.2502159513 5.5647952627 -9.3299738887 -1.3415535802 -1.4766200829 2.4950082547 -2.2191039595 6.7488666173 -0.070488827879 
-4.0439412442 -3.6231714297 4.2417945127 -4.0072650681 -2.8705146682 4.4671135003 5.4209004409 2.5271364016 0.15269270835 
2.4912643924 -8.0453294616 -7.9518641889 -7.2144638951 9.935972388 -2.1011229225 -5.4405552203 7.7951830094 9.0130606079 
-1.929365446 -8.4937897888 -7.3439613288 -7.2836298176 -0.22578422487 3.9166617398 2.8881966855 6.6335783533 5.9852376906 
-3.961105031 1.4691636948 2.4489111042 -1.2053728566 2.879515046 4.5538099719 -7.9550373466 -8.994703149 -8.605889862 
-9.7308429508 -8.989603514 -7.6320074707 1.4555661387 2.8027284897 -0.28205602107 -1.6441322691 -8.869583304 -4.6349291748 
5.3787151306 5.3425171235 1.2744856258 2.5361595506 5.3857352101 2.4540272679 4.37231268 1.1861669611 -1.5910841416 
2.463518859 -5.1728695952 4.4011823078 -5.1791148669 -7.7292939115 -6.7115011059 -7.0522689849 -5.9781468371 -8.8042349565 
-5.8448328517 -5.2365454448 -5.1026110713 -7.1195896547 7.2920126656 -9.7422965602 -2.1339917795 -8.6085822579 -8.2059832215 
-8.5441321297 -8.1425985561 -7.2850767582 -7.9973923503 -8.883613692 -6.8239705226 -6.2690324159 -6.452417451 -6.2647289282 
3.0483037805 -8.1706670551 -9.8313227146 -1.3587542415 -0.97422512905 -7.0671160248 -8.1031610413 -9.7863679136 -7.3278302202 
-5.5705046943 -5.4868485641 -7.4232956189 -7.0784035914 -8.5156226236 -8.0353159904 -7.2299324215 -7.5072164987 -7.8780246006 
-7.7354010467 -6.7832455526 -9.4842983009 -0.80615405106 -4.3920915881 -0.63880960857 -9.7265761663 -7.5168754423 2.4784274378 
-9.98699035 -9.2321060681 -3.5055717647 -0.48271759769 -7.0362899221 -8.0849335859 -6.9665233189 -8.5464335033 -9.2424134002 
-8.8134762033 -7.8659780942 -7.4592451576 -7.8507862125 -8.5701226197 -8.6274701843 -9.0793572789 -7.2710389768 -9.1373462554 
-7.816701243 -5.5987882947 -7.7125813002 -6.7504505432 -0.15948705505 -3.2916738353 -6.3336940958 -6.1171636461 -8.960758011 
-8.5051852395 -8.1137915721 -8.5595287508 -6.4491722244 -8.8955647537 -4.6040398707 -8.0820784196 -8.7345600221 -9.3202190895 
-8.8915713852 -8.9048205462 -9.993770636 -9.4691896339 -9.8215463728 -9.3756671814 -7.7984177865 -9.3243888625 -8.9430054713 
-8.1665112161 -8.8481265363 -8.7003071355 -9.2946048523 -8.9145331487 -8.5191521926 -8.9414962883 -9.8054606185 -8.287046173 
-7.7244106069 -8.4252201664 -7.1617093381 -7.1801560048 -7.3525053822 -7.7657353867 -7.6957414087 -6.7864319604 -8.7659748506 
-8.732908623 -4.6612501932 -4.6390516941 -1.3332491674 -8.627989638 -5.9087824512 -7.156859973 -7.8829616089 -5.963249632 
-8.6087396389 -6.0746863472 -2.4550403332 -8.9345437479 -8.3647538058 -9.0920132513 -9.921837252 -9.1042174982 -8.0232891395 
-8.6706187799 -5.6383928325 -9.9229822832 -6.5450286983 -5.7675825553 -6.8333661666 -6.2676198588 -4.219872751 -7.707373436 
-8.4087620216 -7.4349387936 -1.1012053765 0.20207015857 3.0904883219 0.45509563561 -2.781148372 -7.8072498393 -7.1504147077 
-6.2096216944 -8.2261677427 0.52245997085 -7.696937558 8.4602424101 -7.1528456662 4.5869685788 7.7597518856 8.7708007852 
-6.7340192487 4.232798299 4.660345836 -7.6580372599 -2.5448075395 2.4344757845 -6.385834069 -1.8160346301 4.8280973817 
-0.2553544269 -2.6931156347 -1.7017660114 5.888928898 5.0897394653 -5.7810745576 -5.9376398795 3.6860145446 9.8171232886 
8.747316917 -3.5806276517 0.56855685311 -7.1927411351 -5.6318973214 -6.1776297808 -5.7492873374 -6.8608334091 -8.7318170402 
-8.7848143479 1.0331640985 -7.2663465666 -8.6624223088 -1.0102483139 -8.8291167348 -8.8897405315 -9.2492127708 -8.7674071169 
-8.3940332438 -9.4471998331 -7.5529933724 -8.5518689945 -9.3957711405 -8.6534974992 -5.0434065714 -8.5514357265 -8.6014413429 
-9.1753703525 -9.6719016293 -9.0613080779 -8.0080592985 -9.7531675628 -6.0704248808 -8.4088673591 -8.9698273969 -9.1069325787 
-8.8477873219 -8.7317413496 -9.699830201 -8.6195216715 -7.4971512918 -9.2914445483 -9.266444316 -5.6798471436 -9.0638153116 
-7.2823764125 -5.1683136012 -6.2315066616 3.2925067312 -3.9563015057 -9.0664592585 2.9372985642 2.8668146063 2.9253457825 
-2.7822157297 -9.1483150926 -5.785746629 8.7953725381 -6.7463570062 -6.3843438813 -7.990426034 -7.4548125531 -8.1572672534 
-6.5916860975 -8.0999682206 -7.0840634749 -9.1890913424 -7.2094834542 -8.1535030015 -7.9984381787 -7.9244311701 -8.6039179647 
-7.8442968347 -8.011612583 -2.5423290415 2.5356200644 -9.3216137965 -2.0442371673 1.1728469554 9.580855686 3.6752997646 
-7.0752665504 7.1791537301 -8.9239249522 -6.6483738003 6.8122342771 7.411769278 0.30260363824 -9.0685118434 -0.52806778387 
-1.1316363321 -9.876785457 -8.9283858429 -9.8428118268 -5.3487870366 -2.0674119423 -1.8441930042 -1.7250509231 -9.7812300488 
-1.8196799753 0.50795011928 -4.937697746 -2.3914378263 -9.1720498413 -5.3122755072 -9.4629691747 -0.62231754812 -8.0366623488 
-6.1486675425 -2.3730611539 -7.8554991333 -7.249330888 -6.5653056823 -7.3483435041 -6.4623075564 -8.0026057189 -8.0412287963 
-8.4693211773 -4.6595578089 -8.4003397084 -8.128559129 -8.7404298023 -9.0733426417 -7.3149446252 9.237890414 9.2671383565 
-8.9059947456 -3.5230030619 -8.4265210004 -8.7510124524 -5.5781425733 -7.4205535953 -8.91088677 -6.5064019859 -2.0268719253 
-5.7571558039 -9.0785217579 -5.5915617545 -9.5659843755 -5.5670969651 -6.5313922944 -8.5187424116 -9.2766288692 -9.0324828547 
-8.5940093009 -9.5876555411 -7.7472919975 -8.3814882913 -8.7018912084 -6.1371261573 -7.5362836271 -2.1917291719 -9.897666757 
-9.8360415383 3.6737853461 -9.8261539382 5.3739566204 -2.2108987539 -6.3575358942 9.4054401114 -4.3394163286 8.4156724652 
-9.6053892872 -7.9283439206 3.7658946254 4.4110642653 -5.2693861272 -9.1907912103 -9.0911281879 -9.6195158359 -8.8440010132 
7.0441538118 0.022445875521 7.9772224607 -9.0522978762 -9.0873709203 -9.2238665224 -9.1438178615 1.2762484661 -8.611545815 
-8.5679925547 -1.5452917028 -8.8301388588 -9.0828720921 1.1971539874 8.9121151729 -9.224121768 -2.5466814083 -8.7174192542 
-5.8100587927 -4.9362441011 -6.7521552827 -5.777054621 -1.803058165 -9.0540999758 -0.8644349093 -7.6617760755 -3.8995638487 
-6.6593224163 7.0086786158 6.2944751337 6.667330407 -2.9203201236 -0.93584894995 -2.2825337196 -7.4730153106 -2.096270653 
-3.2351499467 -0.30404955915 0.5537714653 -4.1894754788 -8.4832031755 -5.5465809331 -9.3886766713 5.1322707339 4.4442224432 
-0.31670240088 9.3401675366 -5.5616385305 -4.4665030123 -1.1244742829 2.3378759653 -5.015851873 4.5036658397 5.4531414981 
4.4209947082 9.2705199309 7.3702085869 9.740973802 9.5221854133 -0.67520406101 -0.041620944325 8.3632005664 7.045942361 
9.7067828648 9.9070566995 9.9677941453 9.9184354963 7.3101393778 6.6680239606 8.0346756158 7.5594188838 9.2536736855 
7.0504709167 8.7260696582 9.0231711275 7.547438667 9.9416632556 9.1568917959 9.9433974248 7.9501324322 8.7534591764 
8.0436942949 7.9353676926 8.1464001439 8.0935194112 8.0180223179 8.4852022794 7.8479101702 5.8345623136 7.8433637569 
6.6637196426 6.4829170951 5.9709681616 6.8588160354 2.7892423388 8.5271239885 8.0705309144 5.1796399116 8.6117483072 
9.6423688429 9.610465918 8.9328184034 8.5765857017 8.1572760812 8.4052256222 8.5218629769 9.0561811037 9.0846879843 
8.6278222136 6.6718223098 8.0608330927 3.6967722296 9.2262698306 9.2905461201 6.3587261657 8.2377009464 -0.33625590162 
5.6629442771 9.3163716737 9.135522617 -2.931662207 3.6291795593 5.2033677587 9.6651219423 9.6720198437 9.3260055825 
9.6275790473 9.8375563208 9.8746607728 9.7024753512 9.1503407864 9.4530819468 8.8245601699 9.3782806095 9.2962850319 
9.9879427982 9.7447517912 8.6832562217 9.8125529143 9.6871145396 8.1811652354 9.9041438601 9.4641685949 9.3934461367 
9.2243784865 9.3667356321 9.5673557546 9.6001916937 9.6604876324 9.8760877239 9.534282726 9.0181656835 6.957409662 
6.9673757137 8.6062747119 5.5617195382 6.6972795412 5.9342337861 7.0128074918 5.9739786584 9.1050432521 8.3216909993 
7.5232770743 7.6482918385 7.6652780254 4.9183609667 4.792144783 6.0445125757 6.9339728425 6.1031493301 8.8871869507 
8.0022147381 8.8223277317 6.6348660458 9.3756093455 8.0143113429 8.1292764176 8.1353990773 7.2006906991 6.4862182701 
8.1695801576 9.3690350716 9.0559564168 7.5788146838 8.7291934645 8.5632392598 9.8453442738 9.8527620302 9.9360855828 
8.7090230175 9.0992675904 8.0990316669 8.2361392788 9.052559703 9.8776881893 8.7842470308 6.1006937725 9.5346596069 
9.884765297 9.7545563425 8.9141201499 9.0979418815 9.6799839835 9.9520724382 9.1125276456 9.976570182 9.7903933022 
9.6329706554 9.893381818 9.7403110263 9.4608671061 9.7925136861 9.7810741689 9.7856115457 9.5998052976 8.9537518836 
9.1283686343 8.3372455406 8.3274457731 8.105998012 8.1920043966 8.6809086835 9.3877075128 9.0383914556 9.0645430347 
9.3320952949 9.6881002584 9.2140126326 9.1808199764 9.8367699103 9.7535162814 9.1320321489 9.1207085564 9.2632482429 
3.5715489168 9.6908121486 9.7047094804 9.6488442411 9.3829136461 9.9843623242 9.7834859079 9.0098937651 9.5339707586 