# vtk DataFile Version 5.1
vtk output
ASCII
DATASET POLYDATA
POINTS 1244 float
-1.89733 -2.89146 -2.53763 -2.34276 -2.97233 12.9575 -3.44882 12.8495 -3.35393 
-2.64195 12.5841 13.0893 12.9874 -3.03642 -1.977 11.7355 -3.50603 12.9254 
11.7086 10.8145 -1.93636 11.7244 13.5022 11.6975 -2.59676 -2.42472 -0.961931 
-2.84782 -2.47496 0.74877 -2.4058 -2.26087 2.44166 -2.09207 -2.324 4.11823 
-1.97222 -2.04778 5.71201 -1.74807 -1.98303 7.82991 -1.88616 -2.15739 9.1565 
-1.94643 -2.96178 10.6161 -2.34283 -2.58291 11.8169 -1.75963 -1.36027 -2.12548 
-1.32408 -0.465461 -1.50639 -1.45893 0.691573 -1.3831 -1.53404 2.53374 -1.47167 
-1.88242 4.26882 -1.96214 -1.59084 6.3072 -2.43636 -2.84838 7.7099 -2.94275 
-3.34393 9.53511 -2.34767 -4.04798 11.2895 -3.00312 -3.13997 13.9816 -1.7063 
-2.7218 13.7341 0.212943 -3.69165 12.5558 1.93539 -4.82966 10.8024 3.34143 
-5.70516 8.66327 4.67978 -4.78293 10.7863 6.46216 -3.80629 12.5395 7.9767 
-3.18256 13.872 9.73407 -3.14843 13.0582 11.6351 -2.95014 -1.52827 12.4509 
-3.02716 -0.107836 11.7199 -1.95434 0.901519 11.6735 -1.89907 2.38053 10.8674 
-2.51345 4.27001 11.1223 -1.90849 6.18696 10.9512 -2.27944 8.07052 11.5107 
-2.62496 9.44835 11.7564 -2.8856 10.9729 12.7593 13.3279 -3.49411 -0.261416 
13.3164 -3.77654 1.23295 10.7491 -4.59262 1.42975 8.47912 -4.72309 1.93384 
9.28111 -5.26054 3.67639 8.49242 -4.4733 5.55935 9.75741 -4.85982 7.61274 
11.4087 -4.16746 9.46251 12.6831 -3.84774 11.2921 11.9067 -1.46489 -1.66183 
11.8814 0.0884075 -2.21509 11.0429 1.11103 -1.68895 10.9424 2.69843 -1.94945 
10.5885 4.57599 -1.59569 11.0843 6.37427 -2.09276 11.4151 6.81321 -1.62789 
12.5925 9.26101 -2.29402 13.0972 10.3531 -3.54114 14.6973 11.7945 0.602106 
9.65718 10.0127 0.619294 7.05682 7.22927 1.12311 5.97558 5.76906 4.13171 
10.0504 4.28192 5.48181 6.15754 7.65828 4.56535 6.00923 6.35296 7.35468 
7.95203 9.87222 8.2842 13.243 14.4034 10.4172 12.3493 -1.50387 12.2146 
12.0917 0.29967 11.4051 11.8338 1.49038 11.0261 11.6635 3.35208 10.5018 
11.1886 5.25391 11.1 10.6337 7.43438 10.535 10.9106 9.38457 10.5015 
11.2645 10.581 10.9204 11.6056 11.9753 11.1939 -0.693168 -2.50504 -3.28083 
0.854827 -2.56017 -3.66035 1.85328 -2.05238 -2.71423 3.25524 -2.84221 -2.09974 
5.14018 -2.70051 -1.88599 6.90096 -2.17177 -1.75552 8.6426 -2.03625 -1.82046 
10.0308 -2.31682 -1.67617 11.1455 -2.46899 -1.77793 -1.04567 -3.08937 13.2837 
0.808941 -2.85668 13.6243 3.58446 -2.71425 12.9309 6.43599 -1.63406 12.8123 
5.19187 -5.93163 12.9021 3.70186 -5.01817 9.61582 6.11607 -4.87342 10.9353 
7.71083 -3.5841 13.5166 10.0085 -3.76104 13.3989 -1.70108 12.7161 -3.65436 
-0.0041782 11.3329 -3.8109 1.69723 11.4625 -3.59252 3.58632 10.6141 -3.28543 
5.13375 10.6921 -4.06063 6.85637 11.056 -3.79967 8.25498 12.6471 -3.47371 
10.2411 12.8863 -3.37021 11.6765 13.7236 -2.87411 -0.67166 13.1936 13.0916 
2.01199 12.1104 12.8429 4.87553 11.3208 12.5512 4.80137 8.29285 13.5292 
5.50486 10.6441 14.7204 5.34823 7.73224 13.4876 6.76734 9.10348 9.71003 
7.92401 14.0397 11.74 9.66889 13.3697 12.8678 -1.73493 -0.837079 4.92167 
-2.33811 -0.853134 1.16161 -1.37006 5.88738 -0.385778 0.967133 10.0337 3.75541 
-1.2986 8.61361 -0.27247 -0.250494 6.27984 7.95161 -1.1377 8.74443 9.82692 
0.19422 9.1548 4.04713 -1.66469 -1.01088 8.30929 -1.70239 3.03629 10.1792 
-1.59378 2.72977 -0.62327 1.04239 6.29673 6.5153 1.01891 3.34538 4.37073 
0.0850796 2.75597 5.54269 -2.09731 -0.815805 9.85722 -1.64633 -1.11637 6.59995 
-2.24772 -1.56972 3.36651 -1.93479 -0.908643 -0.626663 -1.33243 4.66578 9.224 
-1.38785 5.39663 10.7891 -1.62483 6.71514 10.1559 1.93553 5.51051 5.81996 
0.564972 8.15874 7.59981 -0.764162 10.1006 8.92963 -0.833175 11.9774 7.79468 
-3.13497 7.2678 5.62575 -1.70139 4.48351 0.740757 -1.76446 5.35055 -1.93849 
1.05141 6.71193 3.28432 -0.40197 7.25202 0.45842 -0.189087 8.60512 1.25303 
-3.12447 10.4813 4.2556 -1.10207 12.0535 1.55352 -1.14194 10.5794 0.450594 
0.886309 5.58169 3.23668 -1.64352 5.34486 3.39726 -2.37632 4.1211 4.84651 
-0.251574 7.90113 3.2729 -2.20977 7.11742 3.6562 -1.17385 3.79686 2.06522 
-0.830624 2.43047 1.46065 -1.56954 1.01559 0.667291 -0.820123 1.0715 2.02355 
-1.30358 1.40267 3.83433 -1.12051 4.46969 7.60149 -1.07639 2.5841 7.99833 
-0.706872 1.04281 5.96384 -1.24968 0.838199 7.47138 -1.68113 1.18188 9.09703 
1.46135 2.6637 3.65775 -1.57798 4.7473 4.92618 -1.26176 3.9073 7.17433 
-1.96364 -0.614388 8.99749 -1.76515 -0.973233 7.42486 -1.86958 -1.2874 5.69194 
-2.18689 -1.35229 4.40015 -2.49587 -1.74435 1.85758 -2.01955 -0.526045 0.343892 
-1.57287 3.66962 9.8225 -1.57688 4.07146 10.4445 -1.36647 4.98011 9.88911 
-0.91946 5.44122 8.14824 -1.02472 5.74415 8.96646 -0.293654 6.41014 8.77728 
0.904943 7.05904 7.30976 -0.723562 6.85827 9.43622 -0.971683 7.88678 9.5011 
-0.218591 8.00433 8.62407 -0.360309 8.49657 8.855 1.03537 7.01278 7.29074 
2.21727 7.4351 4.14672 1.34466 8.54198 6.12771 -0.793886 9.08487 9.5293 
-1.55392 10.3744 10.1474 0.142469 10.7977 6.08743 -2.33006 10.0779 7.12958 
-3.21162 12.1472 6.17825 -0.633586 10.6693 8.49764 0.270437 9.72637 7.4298 
0.00265239 8.98861 8.20769 -1.68929 6.82543 11.2928 -1.81126 5.88625 10.0951 
-1.62046 3.86122 -0.233803 -1.7412 4.24246 -0.795052 -1.70069 4.95654 1.69311 
-1.67075 5.04019 -0.0864342 -1.50891 5.725 -1.099 0.215671 6.3137 1.90334 
-0.400489 6.7134 0.574379 0.229049 7.11124 1.81924 1.30925 7.97657 3.23497 
0.529107 7.80542 2.03677 0.655805 8.85344 2.39267 -0.303756 7.90504 0.930762 
-0.936722 7.5494 -0.288 -0.749336 8.40525 0.32323 0.239503 10.5585 4.5306 
0.0884686 11.1843 2.79652 -0.720205 11.3778 3.40304 -1.01844 9.38076 0.146451 
-1.48029 10.409 0.05343 -0.469065 10.0122 1.32829 -0.593917 9.39718 0.915196 
0.0729376 9.4482 1.96911 -1.28809 7.20882 -0.991397 -1.13995 6.62124 -1.12133 
-2.2768 7.395 4.54589 -0.778038 8.98321 3.46728 1.52475 7.79838 5.82825 
-0.538019 6.04354 5.32285 -2.71548 7.02657 4.26872 0.181656 7.97722 6.00315 
1.44648 5.96141 5.14811 0.536758 5.40003 3.4606 -1.4983 5.94151 0.820988 
-0.0139338 3.76848 6.08731 0.664712 8.02046 4.33707 1.86931 5.59637 3.89628 
-0.0525748 4.69999 5.98405 2.83365 7.95872 6.53806 -2.14193 4.4673 4.83987 
1.72593 5.90703 5.15164 -1.95205 7.0311 1.45318 -0.0880274 7.85304 4.24724 
-0.749017 5.89021 7.18621 -2.41491 8.52868 5.76944 1.09006 7.85249 6.91054 
0.167958 4.54899 6.22111 -1.99965 5.30366 2.44992 -1.2075 3.68935 1.34311 
-1.15467 3.27459 0.77115 -1.23947 2.71931 0.409278 -0.466429 3.05523 2.02041 
-0.0976774 3.80762 3.40877 0.0332729 2.66992 3.05269 -1.50135 1.96551 -0.339801 
-1.39845 1.06211 -0.350012 -1.68774 0.322327 -0.116379 -1.82096 0.162935 1.10522 
-0.457944 1.41648 2.96088 -1.62129 2.07924 3.06033 -1.73533 -0.312673 2.91487 
-1.63336 0.234682 1.74023 -2.40903 -1.09477 2.3839 -1.83515 -0.295322 3.87314 
-1.52032 0.342176 4.36399 -1.25538 1.20257 1.39025 -0.576162 1.94093 2.05286 
-1.2823 1.87081 0.784255 -1.16974 5.42091 7.30288 -1.20767 4.36002 8.51193 
-0.828605 3.592 7.1792 -0.94252 3.37891 8.01838 -0.576531 2.65485 6.77995 
-1.29266 3.47414 8.78503 -1.32502 2.9215 9.05147 -0.212773 1.86524 6.12499 
-0.43565 1.8336 6.95779 -0.941786 0.869292 6.71133 -1.35178 -0.236405 5.64575 
-1.43046 -0.0487497 6.24327 -1.32964 -0.09781 7.01455 -1.52245 -0.0247571 7.93857 
-1.72406 2.20491 9.59267 -1.80079 1.12738 9.85691 -1.67613 0.298252 8.73723 
-1.99305 0.178792 9.89407 -1.30058 1.07911 8.23628 -1.39742 2.00082 8.60177 
-0.948757 1.93456 7.69927 -1.14559 0.758 5.31343 0.0523061 1.8042 5.19327 
0.76259 2.76492 4.42397 -0.829967 1.50294 4.52956 0.51544 4.48323 2.46503 
-0.656868 3.87213 6.75428 -1.39526 4.65775 6.73255 -1.65326 5.65373 6.16995 
-1.69888 5.42782 5.22131 -1.88363 5.33308 0.758082 0.441814 5.01516 5.40662 
-0.897584 5.53938 4.15668 1.35395 3.71517 6.15478 -1.77762 5.94848 6.10552 
-2.21789 5.60608 3.61832 -0.821896 3.48798 0.517476 0.485699 2.61728 1.53108 
-0.349051 3.72517 5.72022 8.67188 -1.8247 4.73603 10.6784 -0.851085 1.61209 
9.68736 6.00077 1.20204 11.5448 9.60564 3.99286 10.113 8.45744 -0.452452 
8.8664 5.81457 8.22179 10.762 9.1654 9.46579 10.9677 11.6082 5.84909 
9.43512 -0.696254 7.5327 12.0104 2.33736 10.4519 10.5584 2.81455 -0.659391 
8.29297 7.83391 3.00741 9.40944 3.10639 3.22697 8.96512 4.48984 7.01191 
10.8974 -1.29946 10.2898 8.42522 -1.5863 6.45968 8.41665 -2.03197 2.68203 
11.1449 -0.247598 0.151402 10.5624 4.84756 10.0992 10.5331 6.09917 10.2991 
9.70005 6.90705 8.82428 7.84675 7.76232 5.52881 10.6231 8.88688 7.12168 
11.214 10.2544 8.53609 9.93688 10.0754 8.85764 10.9318 10.3923 7.37325 
10.1457 4.43818 0.284701 10.6019 5.4345 -1.06429 9.04622 6.74167 2.53366 
9.33783 7.39141 0.592076 8.69343 8.88768 1.45937 6.59181 9.90799 2.80227 
7.47832 9.84191 2.33889 10.3495 10.9261 1.01225 10.2253 6.79515 2.67188 
8.31551 8.72215 5.44373 10.2163 5.34003 4.33788 12.4161 6.49063 7.90963 
9.87068 4.76581 5.37959 9.54262 4.2205 1.97778 9.78401 2.50085 1.0435 
10.4591 1.11724 0.292804 9.18435 0.848206 2.11302 8.66707 0.598363 3.55944 
8.45349 2.89283 6.83498 11.2479 2.08024 8.39441 8.31776 1.05025 5.9095 
8.95315 1.40745 7.05244 10.8772 0.301255 9.43447 9.33513 2.3386 4.72214 
8.50183 5.6763 6.2156 9.0084 4.99797 4.59302 10.0557 -0.502689 8.44896 
8.99761 -0.835664 6.93944 8.57864 -1.25951 5.8518 8.4484 -1.03186 4.09307 
9.58664 -0.415889 2.22805 10.7385 -0.342354 0.997124 11.8189 3.22308 9.82101 
11.187 4.30651 10.6123 10.2875 5.42854 10.0037 9.56561 5.13986 8.95936 
9.64469 5.99946 9.18476 9.06068 6.59606 8.195 8.18266 6.86605 6.94679 
8.74285 7.38968 7.41317 10.2255 8.00917 9.6453 10.1065 7.75584 8.66976 
10.3108 8.54828 8.79775 9.67734 8.03834 7.84432 7.32983 9.09729 4.01965 
10.0998 9.24041 3.17976 10.7802 9.27584 9.02177 11.1539 10.3524 9.35288 
11.064 7.21576 8.30391 6.47764 8.76082 7.01461 8.62511 4.67027 6.51329 
12.1934 13.2059 7.3665 11.6714 11.3931 4.82491 10.911 9.52295 7.99768 
10.3401 7.21004 9.95758 9.98994 6.61983 9.7351 10.0915 3.79218 -0.215496 
10.4563 4.11228 -0.969299 9.92665 5.0965 0.650141 10.2881 5.06874 -0.575037 
[...]
CELL_DATA 2484
SCALARS scalars double
LOOKUP_TABLE default
-1.7024681905 2.1771096997 -2.1995479299 -0.44587350674 2.7957475183 -0.85459051434 -0.37043006226 3.4068677321 1.3568574413 
2.1000135207 3.9393834773 -1.2078531883 -0.20280611166 0.10114373253 1.0211270627 3.2682826879 4.3306723918 4.3843509977 
1.2941051149 4.0193719365 2.6793327538 -1.2416966357 1.3065243544 2.3907183935 -2.1345602865 1.6752848854 0.91842388424 
1.5957680615 2.6447101218 2.567363437 5.4964303317 1.9394814033 1.5240082044 -0.86091388602 6.2581767502 -3.117178399 
7.7720856176 4.1441000953 -0.51943031441 1.1624079231 0.63845924757 0.93515141914 0.52836716411 0.82350287447 -1.8614900735 
-2.1014293896 -7.5158076454 -0.86523909816 -1.5182619717 1.4636736306 -2.950262884 -1.1305538731 2.2153766493 -2.608749204 
3.0778125071 -3.3637786285 -5.5145023812 -2.25111437 2.2683125977 -6.9323171969 -8.5400109159 -0.78454660056 4.8258455238 
-7.7336643077 -1.0443703594 -6.7185789793 -9.72485532 -5.5314372272 -3.9748144416 -2.0022380146 -3.9685966526 -4.389713752 
-2.1198900209 -4.5506816404 -2.614309773 -1.3964663593 1.8870111542 -0.43197167779 -2.1200599584 -2.1745591083 -3.4786461532 
-2.2853880677 0.89060354296 4.4434285381 1.7901047682 2.0471646984 7.1168784406 -8.1503455627 5.6019510216 0.058153420231 
-5.6194357897 4.3131987913 2.2415080709 3.3137881442 -2.2082490945 -0.43552709716 -2.2029443891 -1.6424984753 -1.5970865036 
0.32281893299 4.6288364098 3.7990159097 2.2160229761 1.1031016356 -0.18659707133 1.0668731225 0.75639169983 0.0071663217788 
3.7335685357 0.67421778605 0.89364505842 0.60925286283 1.9037713177 -2.507530197 -1.1116613393 -0.8731801783 -2.3754263912 
-1.0606436491 -2.6494758264 -1.6413628546 -1.3992782222 -1.5529893752 1.9632665865 1.4952921758 -6.9033440287 -7.7826834937 
-8.8654028342 -8.6678149039 -5.903439172 -9.2948742817 -6.6237610966 -8.3937239934 -2.4487495053 -0.8952259526 3.9476277402 
-2.9565815788 -1.4198604471 -0.28009298185 -2.5172698648 -4.8582366493 -3.0143643571 -2.0882847371 -7.3484023681 -0.86792172642 
-1.9132951997 -1.5128644773 -2.6246784552 -2.887634099 -2.8362916602 -2.8551914131 -1.9488325072 -3.0991277259 -1.8130286794 
-1.8942529346 -2.0457033768 -3.506304926 -3.7722534519 -3.0354989674 0.82435113498 3.8071965249 7.8855888852 3.6334393365 
2.955315739 -3.1416163826 -4.9354071826 -0.28482924341 -2.616318109 -8.6710763953 5.3311374764 -4.1609961168 -1.154671873 
-5.2811977964 4.0185366493 0.066600832783 -4.4533646237 9.2036295312 -6.243621944 5.3251288405 -3.6214579947 -7.954303128 
-1.995888395 -5.3565704137 -0.58482406434 2.0225339 5.3723391024 -3.8812447754 3.809769687 9.8277386699 9.0513680209 
7.1003136922 3.6844554579 -8.2215678616 -4.1314587271 1.945452804 8.5410013546 -5.9616877303 3.8274206155 6.0322734263 
3.7103774708 -4.6966082515 -2.9241983483 6.5744048368 5.1490866658 6.4703728584 9.5550190151 -7.6181201286 6.1337363319 
8.0077298912 8.1741345864 7.444959517 -1.455226571 -0.045298428714 -0.72275672828 1.994204336 -5.6343271998 -1.0278572215 
-5.2724094116 1.8043004577 2.3077013893 3.9900581262 -8.3161593049 0.37837503706 0.38127435497 -3.7409487472 6.92634819 
0.62306327692 2.9124393125 4.7374188292 -9.7578997071 1.050333188 -2.4343724674 -4.0298408583 -4.9975546498 -2.9722860194 
-4.014049681 -1.3243950589 -0.79967765319 -0.99933348787 -6.1482362584 0.98494842359 -2.8721599382 -2.1674967873 0.6707178047 
-6.8811821956 -3.9884820265 -5.4918252169 -1.3312759635 -1.0963351127 -0.99354279042 -1.1371007461 2.4735698914 2.6760010705 
4.3975175812 3.3583370289 3.2102667754 5.9773378239 4.753800861 2.687659261 2.9613922405 5.9002742667 0.19816204496 
0.62970753706 5.9186910935 3.9522646593 0.0047147303138 3.6513521405 2.9636372826 3.1143092197 3.4314297506 3.6571751722 
2.0492216292 2.9496090223 6.0005595889 6.8368859734 4.5297124024 4.6928473994 3.9968202417 4.2125457551 2.5203510339 
2.9131922905 1.018156155 3.2790393162 2.8603644234 2.2418711296 0.060126358129 1.3762480746 1.2520194438 2.602980114 
2.0127419833 3.6372455936 6.3927005883 -0.8425213816 1.7322349292 3.2958943473 -2.2757976419 -0.35009762944 1.6352436837 
-1.8417707215 0.68198815131 -0.46698895527 0.14381478726 -0.63492314578 1.6067957958 0.36339515918 -2.0353768325 -0.3935116565 
1.5623903287 5.2991906371 5.0263215763 4.9562810127 4.8562494732 4.4323783465 2.5393381735 4.1953382825 1.8672660237 
3.6245912259 1.8532186362 3.5098173285 2.4120926211 2.5008900205 5.2102732352 4.0687196328 5.4068851991 0.32766238221 
-3.7982654763 -0.86694598862 0.97798451092 1.4362113445 1.0808788372 2.3049423379 1.1036039774 1.9145778962 0.60873832477 
-4.6984836259 1.8428486433 1.6400033808 2.3051005026 2.6186414179 1.2226737776 2.5655378462 2.1451832936 2.4134742063 
3.2554266219 -0.068513147199 -2.4743070304 -2.5327861001 0.29972129682 2.9125453514 0.67075007217 0.84378559197 2.8698370476 
3.1885714183 3.0440409532 2.7502606664 5.3420254642 -0.52809349522 0.060609392384 4.204353129 2.1826474947 5.5943649957 
-6.3355389835 6.282585415 9.0359479933 6.5718049136 7.5416104613 6.9901199851 -1.1743578673 -3.9397418314 -6.8373916191 
-5.5690391052 0.80045563908 6.7933639581 5.5787758772 6.6413014722 -1.9349268484 -3.6683965672 2.2722071726 -0.57588799035 
-2.0571578557 -2.1111262988 -0.87514070148 -1.9934329613 -5.4596533589 -8.8053863656 -5.3345956392 -5.3203741965 5.0236139974 
-0.76104148721 6.0627013719 6.3617128413 -4.7183213872 1.1291346943 4.1642747164 1.7817514027 -2.1936873209 -7.1464574452 
-3.8315036188 -9.81438652 1.7008775531 -9.9697357928 -4.9811526344 5.0286900673 5.6691698965 3.4821614697 1.9235491635 
0.31269656374 -7.8865502755 0.65481038867 -0.062259039167 -6.7816856538 -9.2353682692 -7.3449658935 8.2687838178 -7.950298864 
1.3259708774 6.2314679628 1.4320952894 5.2522623692 1.1042407174 -0.05539509962 1.7349200684 -0.46247110753 -0.6151670462 
0.2749054038 2.0103956898 0.36634918556 -2.5626133281 -0.54250380128 -1.5294665531 6.5473325623 4.6727349024 5.5926320441 
5.7153345312 4.5280052738 4.1955442248 2.1413814869 1.7677221205 -0.40313335248 2.3610036146 6.1866036476 3.1284856252 
4.3191229428 2.6093179522 -0.122839525 0.9661041753 0.77949384204 2.4185056882 3.7268346665 -0.030682404178 2.9621033914 
-2.134152319 -2.9855913079 -4.2865719586 -2.8077655403 -4.3157876988 -4.3736437636 -2.6645861981 -2.4080153654 -3.3810643468 
-7.9006296453 7.6412830185 -9.6744743611 -8.0529722288 -6.3634713544 -4.3119331405 -5.6686560357 -2.7152660721 -3.5622200342 
-2.1178330189 -3.4823628624 -4.9743427983 -4.7995973791 0.042432380912 4.8487628697 3.0497313974 1.3687914757 -2.9223574878 
1.0625672649 0.940841245 7.229633162 4.0456100559 7.7383062146 -2.5053217726 -3.7010289416 -5.7036957853 -1.035508227 
-5.0068972393 3.8945295146 -3.961717459 -4.8417620148 -5.1905573185 -5.3722824898 -3.9655719594 -3.3848804529 5.1161344561 
-3.2308329182 -4.087130776 -0.6122634521 1.6713903737 -5.9604771466 -2.1394909117 1.2614276993 -0.18454550933 0.46543680615 
0.60914082072 -4.0849271754 -3.5975684739 -1.3529130286 -0.82936315951 1.0560183552 -3.1078134825 1.2377402501 0.057557786714 
1.6204530216 0.51304713486 -2.0705901406 0.21507257813 -1.844042177 0.65713930048 -2.507089577 0.80270099805 3.2614425478 
1.9943907622 5.0208758755 4.4983123012 4.6860680378 1.422477917 -2.9078776672 -3.3379395265 -3.8755278828 2.3852435433 
4.8352388255 1.9167369322 4.9414135137 3.2840300482 2.9771943564 0.58645564869 1.8479307727 -1.1051167345 2.5354568504 
2.6743269269 4.9995538966 3.2563700968 -2.7930717151 8.9566297054 -2.7542352111 -9.3434962069 6.2842573836 8.4604052046 
-9.9339092219 -6.9722861266 -5.9752824999 -6.2692612378 6.3790757815 5.9556982226 -9.3967935435 4.1825518787 5.5747076529 
1.6525533719 4.2169514314 9.3716147686 -7.4089620463 -7.5641359465 -7.5861799523 -6.814113324 -7.1483224667 -6.6396405963 
9.643771066 3.7913738829 1.2975073184 -1.9276479532 -3.9464886535 4.0203751255 3.4094005629 2.493571137 2.7292330961 
0.95223835943 -0.52410679314 -7.7033041878 6.5220193855 0.48295504815 0.47815969989 8.997686374 2.1815955933 1.3348582796 
-0.17732843912 -7.3360793788 8.7848793126 -7.7476586583 -6.6799158752 1.633420907 -1.524148361 7.2833064134 6.1145642649 
-9.1034662927 -3.7221004321 -1.9517477852 -9.2020437114 -2.677343918 -3.6220541735 8.2065791033 3.5995012726 5.6804794358 
4.9207545765 1.9376796884 6.6874043333 -6.9913308644 0.46876478098 6.1431393736 1.8576701986 8.6346979792 9.7692538259 
-3.2790486451 7.5120983504 1.1336946466 -2.4850198036 -2.2934196538 5.1936866105 9.3826490821 -6.4548343457 3.1289262966 
6.8580089491 6.6172526021 5.4169130864 7.0829702499 2.0544174233 -5.5145602135 4.8640480447 6.6028879346 8.7844213489 
-0.54299948327 3.8497918093 -3.1102128024 1.1084225846 6.6999367569 1.3084121847 -8.9245279904 7.3733433387 -8.6419440016 
-8.5178212124 -4.1770625042 -5.115071877 -7.9108941024 2.2956413793 1.7450430028 -0.09879007564 -2.0910435381 -2.3806799481 
-1.8541440746 2.4006351559 0.035219553057 1.8046613996 1.3119179082 -1.5880309427 0.16203843924 -1.0495214069 -0.72988211276 
1.8028580624 0.62977008594 3.1145382075 5.4090485562 2.1657087567 0.82097975978 1.9935137329 1.8925634864 5.0207783502 
4.379673233 4.7036680021 2.0036171819 1.8046299776 -1.1948975402 5.491145413 2.2476741346 0.72252626746 -2.8575050945 
-1.7245937629 2.0364897719 3.1503690798 -1.7983597513 3.1514948949 -0.79219934749 -1.7389933321 2.1749843358 0.17695478778 
-2.5836318456 -0.98135070993 -1.4972633736 -1.6518294821 4.2568067228 3.3513876816 3.8390256398 3.7788534281 -0.67720788047 
-4.0461864282 0.11532364819 -3.6994512363 2.4247532957 1.2070343954 1.0840431551 1.1931565508 1.0369892016 2.2736745244 
-0.40170942438 0.46505001847 0.426601917 3.0123858597 1.2077296606 1.465245804 4.1431600145 -6.2149438335 -7.3596979262 
-5.9266165271 5.8860106599 -5.6399222942 1.6452343104 -2.8905092747 -5.7869303757 8.5403574483 8.2265158349 9.1003298153 
-0.83215313002 -0.43454121099 0.87870771713 -0.89226924426 1.0301383919 3.2816768508 -0.31570664372 1.17512234 0.57379958986 
-0.45020871784 0.44514745782 0.33349379576 -1.2195202745 0.64623886052 1.0794022126 0.9121813275 3.5758565165 -3.8771495467 
0.13551170637 -3.9147828796 -3.5535342171 1.1829434699 -2.0698783473 1.4723732873 -2.69822104 -3.2807392879 0.68344165489 
-4.1947076033 -2.890799251 -1.5477919016 0.46710822736 -0.60187246819 -0.99303034453 -1.0813413021 -4.9879242729 -4.9217234375 
1.0364198476 -0.57059136364 -1.5348432628 -0.82103690652 -6.2710122761 -1.5424545292 1.0521950559 -1.633716854 2.3813110754 
-1.304659524 -3.848894372 -3.9615240046 -1.1876518249 1.8990806571 -0.86321778403 3.3920691602 -2.2990593646 -3.3404392385 
-1.1925696365 -4.5972422759 -5.1541278663 -2.1182020726 -0.41748330565 -0.2825605885 6.6577055198 2.7039064018 -3.7514098813 
0.78188392561 -3.2873903064 -1.0679833881 -3.0422208078 -0.06858742132 -6.576833986 1.0475473555 -0.96976463369 -5.2103798898 
-2.5518507979 0.052771468466 -1.6741535761 -1.6096922465 -0.019209404312 3.5106539386 -1.0005379322 -1.2133244613 -7.5749895385 
7.6322323879 -3.0931328159 -8.3825519289 -1.9937497741 -1.6417550313 0.79742874741 -2.1843645114 -8.7595863482 -1.9243579635 
-0.5927544983 -0.564334828 4.6270028212 -4.2648238955 -5.8451872135 5.3045156522 4.1342146311 1.9582950988 -2.9589749048 
1.9390981247 -8.4854586802 -7.7054432807 -8.9268374561 9.9156665951 -4.6736236623 -7.0983815714 6.6180303179 9.3822500649 
-1.5914309919 -8.492548088 -6.7108225755 -6.9602017163 -0.77032171254 3.0085879435 2.2475229738 6.3630868993 5.7241562721 
-2.8672551613 1.9923973284 2.6402595438 -0.61069814906 2.7510174953 5.0420390885 -7.7604414637 -8.7678293638 -8.7434740835 
-9.5411271932 -8.881939887 -6.9232391114 1.9682811257 2.8040974827 -0.75798536644 -1.3965328984 -9.0324040029 -4.1506740067 
4.7963444615 5.6146892398 1.9637893667 2.5406618348 5.4996840452 2.6826334672 4.1451090963 1.8522777553 -1.8408419052 
2.3682432836 -4.3146735737 4.1426578794 -4.3312011836 -9.4403042707 -5.202438442 -7.6419768108 -8.4201263245 -9.1946775303 
-4.8939276635 -6.0824381598 -6.3273233045 -5.7703055935 3.9056722021 -9.8540959284 -3.8865120496 -8.3030327753 -8.1937721266 
-8.3951574096 -8.1593643288 -9.1105182347 -9.1309797732 -8.8339142454 -5.6335520739 -6.9209995311 -7.1450536833 -6.9371730259 
-7.2861361543 -9.888545475 -9.6046536058 -6.5312354854 -1.1259044988 -7.0805534398 -8.2889739736 -6.0601406726 -5.5469300757 
-6.3031426045 -6.0454601003 -8.3065718155 -6.827612426 -7.51958569 -6.9502160149 -6.727054711 -7.8837875935 -6.2912223419 
-7.6844152041 -6.430420396 -9.6853723104 0.012432661707 -2.6181598203 -1.0215368758 -9.6973843927 -7.5810807844 2.7871890625 
-9.8258997926 -8.7486631576 -0.50830610997 0.26571516346 -6.6214277374 -9.912966917 -9.0372332026 -8.595241039 -9.6735477956 
-9.3952795693 -8.9063300814 -8.2566651704 -8.8801747506 -8.6710606094 -8.1219944106 -8.0343692126 -9.0359399824 -9.8625556747 
-8.2952095024 -5.5622005845 -6.4781392945 -5.4116089606 0.38583110966 -4.5544230464 -5.5184007594 -5.1414063255 -8.1287683153 
-7.6012636239 -8.2982482048 -7.3331072525 -5.7097019133 -5.9993894008 -6.6029584122 -8.2462045777 -8.3817831016 -9.3627399981 
-9.1704772163 -9.1314386159 -9.5335179349 -9.6842313046 -9.8703029182 -9.5889445334 -8.6178804653 -8.6483054323 -9.1022128303 
-8.5685498749 -8.8195410869 -9.2268960686 -8.7872985237 -9.2583369625 -9.1226330213 -8.8012199538 -9.8053263168 -8.4234637213 
-7.7166156831 -8.8173542022 -8.5599709002 -7.7800949013 -7.8571334873 -7.9796704935 -7.7191720032 -8.417963631 -8.6282812833 
-8.6256760247 -6.2895523038 -6.0824689058 1.1141045673 -8.2280248365 -6.7647999392 -8.2592402455 -8.4312376408 -7.2838245644 
-8.4736148461 -6.7495969765 1.6956098587 -8.9844640897 -8.3557706929 0.14324680433 -9.4488350022 -9.0196267086 -5.2670715067 
-8.1467719845 -7.4502301335 -9.8635598298 -7.5999942907 -3.3652268029 -5.9238843931 -7.8427852387 -7.1373030796 -5.3137612591 
-5.4895652596 -5.1404574051 -1.88441827 0.16099053855 3.5428191706 0.14473291342 -1.7801163472 -8.7030428281 -8.4571941578 
-7.982983107 -8.4953413892 0.52136951478 -6.8630563122 7.6265525663 -8.211745333 5.528191815 6.6608569028 7.5087318736 
-7.3337816365 4.3004203042 7.2054203252 -7.9387839495 -1.0107701069 3.4518728363 -6.0920827072 -2.5468245377 5.195940343 
-0.31576101093 -3.3984426701 -2.2494681172 5.508778558 6.3706960091 -5.7357960492 -6.5465617504 4.1065104914 9.7999614097 
8.3083024958 -4.0883062455 -0.35553141639 -5.0905814248 -4.3546801352 -3.7776745358 -4.4646374462 -8.2162800458 -7.3394293888 
-7.5201600396 0.16773624152 -6.9660213186 -8.6786850206 -3.1441665897 -8.4087209826 -9.439601826 -8.5320908635 -7.944935715 
-9.0124739962 -8.6115937295 -8.1622921105 -8.9203124941 -8.5845614553 -8.5727198959 -7.286888927 -8.5825326822 -8.1751543925 
-8.836196592 -9.4263528784 -8.6218648689 -9.370962423 -8.7371745965 -7.3549918483 -9.2514734749 -9.1432013471 -9.5087112279 
-7.6014690364 -8.2678835679 -8.7492200562 -9.8572463815 -9.8169437654 -9.4674414122 -9.4755809949 -5.4379670696 -7.6060721276 
-5.7215372193 -4.6896903351 -3.8830008179 2.8927104754 -4.0592918902 -7.8755042607 3.1336278613 2.440145895 2.5396967732 
-1.9534543366 -7.5867639658 -5.987348652 5.6587097849 -5.5810375475 -6.0188629823 -8.0071534569 -6.517424176 -7.576972565 
-8.0447794897 -8.5303814917 -7.9931387754 -9.0252298885 -8.3186756409 -8.3723728498 -9.1187227216 -8.0988939711 -8.3861495536 
-6.7017114572 -7.994017058 -2.8488859218 2.981174098 -9.3672923833 -2.3661937682 1.134132078 9.3681361931 4.2729732833 
-7.0595640383 7.1798533528 -8.974355227 -6.9580483662 6.4299689524 8.2301328459 1.1634176056 -9.2920094392 -0.19765615875 
-4.5808824697 -8.5669875428 -9.5780896034 -9.5616359077 -6.796440787 0.98451349682 -3.651521658 -3.7644852164 -9.781446638 
-2.6287418861 0.60887151274 -5.2922331953 -3.5983957007 -8.5331399679 -6.5091917502 -9.1227860712 -0.2737634587 -8.5581745806 
-5.691356522 -3.0812186628 -7.3151223468 -7.183131237 -6.5179665582 -7.9041803574 -6.2360916932 -8.0873404277 -8.5923614733 
-8.5919292954 -3.3285557315 -7.3104029398 -5.2894499327 -7.846575572 -9.17583749 -7.4221813396 9.2392952279 9.1449754437 
-9.6302465597 -3.660789636 -8.9975663266 -8.8266102618 -6.1585401755 -7.2202317311 -8.818737785 -7.1099403092 1.0350132748 
-6.5955629444 -9.3375687827 -6.7680246963 -9.2989399649 -4.8645075402 -6.8839458748 -8.4190610439 -9.8912020856 -8.4765484281 
-9.6766853439 -9.7303197171 -7.3185822544 -9.569012137 -7.5175568277 -6.877792753 -6.4160717305 -1.9909670609 -9.9730295761 
-9.8395206668 3.8351989703 -9.562189568 5.3763299359 -1.6986451547 -5.852692406 9.5745079401 -5.7335024148 8.386150191 
-9.5993142949 -8.0155757666 4.1536300047 3.970418502 -7.2525922375 -9.2807922629 -7.8634226041 -9.011563488 -8.7508670465 
6.1650753018 0.18930702315 7.3942012136 -6.547082632 -8.6212470476 -9.2102049249 -7.5860040873 2.9111687022 -6.6505363016 
-9.1719639123 -3.0855163986 -8.5412387049 -9.3756972341 1.2977739384 8.7155740186 -9.443993938 -9.2044108545 -9.0503475967 
-9.8304898313 -5.1752907198 -6.4303806193 -5.3558435014 -3.4751584853 -7.4349724665 0.48874399765 -8.9422548871 -9.0062113207 
-6.2791769103 6.9930703754 6.0434395289 6.5229025159 -3.1566357333 -0.93966854631 -2.5856683262 -7.8272468815 -1.9977261971 
-3.1486832789 -0.32319063611 0.63433726224 -3.9127390867 -8.1883653084 -5.5985673379 -9.4222919044 5.3530696927 3.4928924098 
-0.96664803218 9.434239925 -4.484570344 -4.8272121113 -1.1822098121 2.051775149 -4.6256940567 2.5317502142 4.789109774 
3.6669393543 9.5277759554 8.6879520121 9.4998415131 9.4604968092 6.2697132728 -0.76119034494 8.9342651803 8.5453475066 
9.5585947503 9.9677282564 9.7565124995 9.959448258 4.3968821091 8.0130569954 5.923080196 4.1594507406 9.9352553047 
7.5072938523 9.2207359759 9.8891756836 7.2339076733 9.8652149133 9.9557783529 9.9193195593 7.7649381246 8.8712654248 
7.8318400807 7.7217639201 7.3207536346 7.8158503146 7.5860525185 7.490729341 7.7883232299 6.6097860239 6.9491457122 
6.4641672981 7.1075772776 5.9236872765 6.6892871756 4.0740116586 9.1003981779 7.8782448015 5.3649742712 8.7365167567 
8.3208988001 8.330144529 8.1325125391 8.3256827642 8.1897392918 8.3676862846 8.6111486345 8.262826424 9.0285917147 
8.6684650085 8.0141876312 7.7791166016 3.2129817045 8.3406867773 9.6573622545 5.5364914098 8.7369711809 1.3380905961 
5.1445048506 8.9581073237 8.2559342786 -2.6439439467 3.197914714 5.6511644561 9.7485617058 9.1354701815 8.7259031624 
9.0262145543 9.9307934482 9.6509917661 8.8495501894 9.2129327335 9.3015286803 8.8953796156 9.7175751027 8.4202889361 
9.6430345871 8.3998077616 9.1393574872 9.8129483516 9.4621157567 8.7657327995 9.96875178 8.8188164755 8.2131279415 
8.7309198041 8.8881471011 8.8840287728 9.8384474752 9.9758681589 9.6050423393 9.8026308745 8.3899404478 6.3942626709 
4.9670335536 7.4633718979 5.0546295419 5.8873734397 5.3493519827 6.8485343753 9.6456100423 8.7409304907 8.153741228 
8.6124549083 7.512711896 6.2046689465 4.2760641339 4.4600655856 6.067794623 6.6182905706 6.2667747887 7.6639241207 
7.1465299894 7.7229439365 5.8163911217 9.4979255799 9.2841973704 8.6350567783 7.1182518887 6.7785598384 5.9104033275 
7.081321827 8.1742426793 9.1815553228 7.2103834911 9.352403277 9.1864338702 9.4827089739 9.9139085812 9.4652552886 
9.2232477741 9.1400090979 8.1215576834 7.7168481873 9.04305774 9.857051416 9.783729663 6.0886139002 9.6032735208 
8.4579634073 9.9331582799 9.7653947617 9.9670709698 9.8156234112 9.9699943551 9.9720560771 9.9159831447 9.8616457163 
9.7095129571 9.9890555003 9.933164187 9.9230126346 9.6520412075 9.9995380854 8.6835180414 9.2565033574 8.2872433759 
8.3002342724 8.425054545 8.4746110725 7.0085832567 7.7179893077 8.5095872086 9.0812358373 9.5594538678 9.4462228549 
8.6106221606 9.9513289701 9.3725372718 9.261446006 9.570077178 8.8658592187 9.8264166908 9.4637548689 9.5274334093 
2.798960448 9.6055181258 9.4733022394 8.2427902947 8.4037277507 9.7086846049 8.5385719607 9.5351595951 9.1294661203 