# vtk DataFile Version 5.1
vtk output
ASCII
DATASET POLYDATA
POINTS 1244 float
-2.39169 -2.87479 -2.55273 -2.72501 -3.17364 13.1367 -3.73639 13.0977 -3.41497 
-2.97378 12.8228 13.302 12.9491 -3.1688 -1.67197 12.0394 -3.7416 13.1879 
11.9469 11.0085 -2.15265 12.2034 13.9356 12.198 -2.86006 -2.74818 -0.87355 
-2.52601 -2.30867 0.714078 -2.77866 -2.77049 2.51118 -2.09454 -2.3342 4.00357 
-2.35432 -1.98534 5.68067 -2.31208 -1.9824 7.97559 -1.78576 -2.26565 9.37094 
-1.95055 -2.49262 10.7635 -2.58428 -3.06857 11.7399 -1.82519 -1.95263 -2.0204 
-1.5938 -0.594501 -1.6708 -1.46361 0.684606 -1.47235 -1.77031 2.29782 -1.60972 
-1.8483 4.24227 -1.62253 -2.11078 6.0988 -2.90358 -2.84573 7.92494 -2.87592 
-4.06696 9.55041 -2.92886 -3.99399 11.4581 -3.15913 -3.28228 13.8962 -1.90457 
-3.13307 14.2588 0.0665966 -3.86849 12.7226 1.92221 -4.99419 10.778 3.33382 
-6.251 8.42695 4.53373 -5.28595 10.7501 6.46774 -4.43196 12.6046 7.93761 
-3.34674 13.8358 9.69788 -3.35833 13.5207 11.7342 -3.0098 -1.68097 12.4968 
-2.86482 -0.157792 11.859 -2.48796 0.518472 11.1589 -2.277 2.24627 10.9993 
-2.28919 4.10687 11.2998 -1.87512 6.01442 10.9595 -2.30076 8.26536 11.4921 
-2.85419 9.34947 11.8256 -2.74638 11.2168 12.6985 13.336 -3.54174 -0.516455 
13.65 -3.98881 0.995437 11.0101 -4.72704 1.40119 8.53671 -4.91958 1.7389 
9.09118 -5.26266 3.61179 8.47018 -5.02515 5.64442 9.96415 -5.34765 7.57122 
11.3048 -4.66605 9.51224 12.6007 -4.23644 11.3329 12.2843 -1.63757 -2.03481 
11.44 -0.178533 -2.14011 11.2063 0.876705 -1.96075 10.7745 2.44814 -1.74211 
10.9157 4.35615 -2.00645 11.1284 6.06662 -1.85664 11.2982 7.00054 -1.75719 
12.6836 9.27781 -2.37977 12.9337 10.4419 -3.82044 14.8133 12.1217 0.810523 
9.72757 9.98747 0.691714 6.90233 7.11244 0.962533 5.76571 5.57506 4.08071 
9.84024 4.0193 5.36566 6.1143 7.42749 4.47996 5.71836 6.01357 7.43046 
7.92248 9.96053 8.26978 13.2373 14.4415 10.2988 12.3646 -1.7695 12.1328 
12.1879 0.19484 11.5686 11.7078 1.34284 11.1285 11.8304 3.48056 10.8104 
11.0947 5.32723 11.062 10.8404 7.66986 10.862 10.7879 9.34297 10.6725 
11.1508 10.9592 10.6937 11.5422 12.3572 11.2512 -1.03101 -3.03371 -3.66683 
0.482817 -2.53868 -3.91894 1.99021 -2.09567 -3.05533 3.37832 -3.02174 -2.27425 
5.3568 -2.76961 -2.06841 7.0788 -2.29441 -1.77332 9.00519 -2.21325 -1.89479 
10.2561 -2.27774 -1.66213 11.385 -2.78012 -1.84364 -1.05467 -3.6267 13.6261 
1.03321 -3.06242 14.0544 3.65982 -2.92115 12.9678 6.76254 -1.76777 13.0938 
5.30865 -5.87178 12.6781 3.73981 -5.53465 9.66074 6.10261 -5.27068 10.9048 
7.57188 -3.97481 13.8953 10.1381 -4.03565 13.8218 -1.94132 13.2307 -3.92256 
-0.417513 11.3483 -3.65754 1.60042 11.8111 -3.74625 3.39071 10.684 -3.71154 
5.24305 10.42 -4.10077 7.01883 11.1376 -3.91901 8.35552 12.8434 -3.766 
10.2686 13.0639 -3.54509 11.9954 13.7829 -3.11442 -0.69434 13.414 13.1974 
1.9787 12.2804 13.1113 4.9039 11.434 12.8348 4.85986 8.2143 13.7694 
5.45148 10.4464 14.3794 5.43701 7.70041 13.864 6.71494 9.08548 9.71966 
7.78951 14.2457 12.0696 9.67465 13.4487 12.9678 -1.9662 -0.891766 4.83773 
-2.27312 -1.03791 1.06446 -1.57913 5.80549 -0.679747 1.05629 10.0814 3.79848 
-1.291 8.64708 -0.309465 -0.290558 6.19041 7.96037 -1.0897 8.7361 9.85022 
0.305766 9.20825 3.80907 -1.66791 -1.02965 8.33154 -2.42425 3.06351 10.0776 
-1.75161 2.76885 -0.484786 1.09589 6.28454 6.66629 0.724764 3.35922 4.41699 
-0.0955828 2.69596 5.52482 -2.21532 -0.854514 9.86715 -1.88308 -1.18487 6.57052 
-2.34411 -1.63032 3.35756 -2.10352 -0.877338 -0.7063 -1.49074 4.68207 9.29781 
-1.81046 5.23554 10.6909 -1.51958 6.76908 10.158 1.97845 5.664 5.72196 
0.497698 8.16214 7.5593 -0.793543 10.0887 8.92436 -0.923418 12.1758 7.72338 
-3.23709 7.29232 5.46212 -1.74923 4.5525 0.620751 -1.84265 5.21415 -2.05193 
1.03848 6.73082 3.20691 -0.547682 7.26939 0.460111 -0.186668 8.63301 1.2108 
-3.2753 10.5442 4.392 -1.26222 12.2035 1.50569 -1.20223 10.6232 0.423141 
0.896292 5.38008 3.18304 -1.76942 5.17853 3.5256 -2.44976 4.09267 4.792 
-0.327551 7.71561 3.37131 -2.16804 6.94594 3.52196 -0.895911 3.82429 2.34145 
-1.00362 2.41525 1.38026 -1.56823 0.993939 0.63248 -0.994833 1.00027 1.92033 
-1.2696 1.10659 3.78461 -1.45549 4.5831 7.70382 -1.34008 2.60512 7.90992 
-0.963363 1.00514 5.9876 -1.45101 0.789263 7.50822 -1.90206 1.14864 9.08215 
1.66757 2.80077 3.69767 -1.46 4.8675 4.92654 -1.07808 3.99484 6.94857 
-1.97364 -0.703881 9.01891 -1.65705 -1.0355 7.31471 -1.93993 -1.41551 5.59978 
-2.16293 -1.41804 4.32026 -2.60169 -1.80081 1.85433 -2.14048 -0.577496 0.278517 
-1.86953 3.69738 9.88787 -1.91099 4.08577 10.3689 -1.57109 5.00259 9.8995 
-0.954346 5.26244 8.02441 -1.0643 5.60702 8.93556 -0.633669 6.47687 8.6426 
0.624524 7.06574 7.24925 -0.778182 6.85404 9.78016 -0.962512 7.97747 9.51848 
-0.335765 8.10274 8.50506 -0.398455 8.51694 8.81388 0.870141 7.02345 7.1957 
2.31394 7.53783 4.06048 1.51414 8.65406 6.06208 -0.840241 9.10594 9.53933 
-1.49186 10.3854 10.1006 0.153516 11.0235 5.84555 -2.4885 10.0642 7.15491 
-3.41108 12.1078 6.07622 -0.594248 10.7616 8.56702 0.244102 9.79158 7.39181 
-0.0454591 8.98734 8.17641 -2.03412 6.9755 11.1586 -1.69839 5.77041 10.2003 
-1.64976 3.8425 -0.33986 -1.89273 4.17004 -0.819008 -1.88222 4.99872 1.60554 
-1.91112 4.94155 -0.100742 -1.63666 5.65898 -1.17123 0.157193 6.29699 1.84569 
-0.47958 6.67607 0.465382 0.267677 7.10379 1.84457 1.04913 7.95414 3.13056 
0.323292 7.85779 2.08287 0.549869 8.86371 2.45333 -0.328335 7.94201 0.928519 
-1.05462 7.60878 -0.327226 -0.929573 8.38368 0.271313 0.125713 10.4949 4.55302 
0.0459132 11.3377 2.78317 -0.74669 11.5642 3.40556 -1.17006 9.35251 0.179065 
-1.46405 10.4316 -0.227185 -0.531374 10.0223 1.31465 -0.597952 9.41826 0.843949 
0.165618 9.51378 1.94011 -1.45908 7.21516 -1.10496 -1.35683 6.59351 -1.32507 
-2.37405 7.3221 4.49597 -0.74102 8.92786 3.15799 1.42264 7.73118 5.8549 
-0.451465 5.73931 5.49293 -2.89602 6.87664 4.11923 0.123886 8.11215 6.06652 
1.70461 5.80667 5.29897 0.458436 5.39506 3.47475 -1.80773 5.88818 0.646209 
-0.215154 3.46189 6.12624 0.635005 7.89498 4.20819 1.77268 5.56168 3.9936 
-0.00702643 4.92035 5.77155 2.86097 7.73806 6.41276 -2.16101 4.4036 4.78557 
1.7998 5.87754 5.00818 -1.98977 7.13207 1.07238 -0.0858266 8.18781 4.00834 
-0.900891 5.9858 7.35396 -2.64969 8.64733 5.79313 1.22151 7.81366 6.90556 
0.213303 4.38534 6.29217 -1.9552 5.5051 2.64495 -1.38105 3.74797 1.21146 
-1.27609 3.21062 0.622895 -1.52325 2.55279 0.201528 -0.61328 3.00273 2.06249 
-0.122368 3.81357 3.40278 0.0231212 2.67033 3.00532 -1.55176 1.98674 -0.3965 
-1.72724 0.965413 -0.395964 -1.82816 0.524656 -0.295568 -1.85902 0.119622 1.00386 
-0.42302 1.10946 2.94996 -1.47425 1.98373 3.11585 -2.09801 -0.332023 2.64146 
-1.74256 0.0854105 1.75247 -2.41123 -1.3654 2.3417 -2.10077 -0.372937 3.93213 
-1.56629 0.290763 4.36214 -1.25394 1.23323 1.33033 -0.728323 2.00183 2.09351 
-1.44592 1.87363 0.656665 -1.29581 5.36672 7.24042 -1.40443 4.44607 8.5922 
-0.943723 3.5105 7.41957 -1.05955 3.41099 8.16589 -0.659763 2.67234 6.72929 
-1.45194 3.4922 8.91791 -1.75484 2.8702 9.04598 -0.466044 1.87535 5.94076 
-0.923032 1.97687 6.80294 -1.18772 0.886223 6.80802 -1.65954 -0.375259 5.6787 
-1.43284 -0.164498 6.25866 -1.57712 -0.141167 7.11692 -1.76482 -0.0268865 7.90545 
-1.96429 2.17723 9.54821 -2.0961 1.07626 9.85552 -1.80467 0.283405 8.74789 
-2.17397 0.154794 9.85249 -1.67796 1.10296 8.14952 -1.58795 1.94419 8.67516 
-1.17731 1.8545 7.69995 -1.19807 0.431544 5.30626 0.170799 1.65061 5.33184 
0.584762 2.63992 4.5701 -1.01035 1.4562 4.59141 0.705179 4.54315 2.31049 
-0.928775 3.70436 6.53142 -1.5274 4.62297 6.78862 -1.70662 5.70401 5.96836 
-1.98288 5.35323 5.14776 -1.85051 5.26157 0.829593 0.796494 5.22555 5.80935 
-0.921579 5.66002 4.10375 1.35707 3.72335 6.04452 -2.10739 5.76252 6.30648 
-2.5733 5.61944 3.57324 -0.861483 3.60407 0.443803 0.614193 2.67825 1.44307 
-0.476078 3.73941 5.68012 8.40871 -1.86068 4.7381 10.6999 -0.850401 1.65399 
9.55836 6.10458 1.1606 11.68 9.67697 4.02019 10.085 8.46215 -0.51604 
8.87443 5.81897 8.32154 10.7194 9.12154 9.50021 10.8093 11.6603 5.88052 
9.33051 -0.722532 7.5209 12.2593 2.30194 10.3722 10.5852 2.75893 -0.56219 
8.29082 7.58239 3.16829 9.14859 3.06828 3.23385 8.84468 4.32093 7.11996 
10.8301 -1.39301 10.298 8.52447 -1.65025 6.43592 8.36373 -2.09344 2.74383 
11.0968 -0.294273 0.128788 10.7945 4.93234 9.98098 10.44 6.17528 10.3513 
9.69285 7.05329 8.73247 7.59644 7.8996 5.52003 10.5161 8.93872 7.13437 
11.2098 10.2317 8.54302 9.9845 10.0195 8.83013 10.8878 10.3437 7.4185 
9.9123 4.36137 0.107827 10.5023 5.50842 -1.20652 9.20008 6.86877 2.58986 
9.25041 7.57722 0.422405 8.58226 8.93034 1.39896 6.50019 9.87991 2.73809 
7.388 9.88123 2.21056 10.3531 11.0261 0.982792 10.1213 6.78249 2.7545 
8.0092 8.88749 5.56866 10.2571 5.22955 4.34234 12.4517 6.37504 7.71088 
9.54746 4.72176 5.29525 9.57815 4.08619 1.90274 9.75413 2.54517 1.06989 
10.3821 1.06176 0.24082 9.28117 0.822969 2.17364 8.57579 0.402666 3.55057 
8.41973 2.61645 6.79334 11.3977 1.96706 8.46955 8.09913 0.996375 6.06954 
8.91526 1.43912 7.05083 10.9741 0.0879441 9.56795 9.37725 2.04413 4.65338 
8.50021 5.97756 6.31176 8.87637 4.93703 4.72393 10.069 -0.564637 8.38862 
8.89119 -0.855874 6.96684 8.39504 -1.45305 5.88849 8.26055 -1.21696 3.92666 
9.52963 -0.338792 2.11844 10.6762 -0.367266 0.986357 11.7529 3.18843 9.76383 
11.281 4.41039 10.4197 10.1077 5.53897 10.1705 9.44158 5.18333 8.90416 
9.62121 5.99288 9.28706 9.05713 6.66919 8.19811 8.31981 6.87955 6.88429 
8.7145 7.35675 7.27511 10.2652 8.00994 9.54045 9.93725 7.80427 8.81362 
10.3122 8.42518 8.73735 9.7746 7.81766 7.8578 7.24255 9.21668 3.80592 
10.0032 9.56546 2.90958 10.6781 9.24293 8.94768 11.1952 10.4293 9.28342 
11.2038 7.09281 8.32685 6.38925 8.5824 6.98475 8.57092 4.60586 6.52381 
12.3611 13.4063 7.27705 11.6611 11.446 4.84443 10.9802 9.45347 7.94558 
9.99915 7.36214 9.75664 9.94565 6.60003 9.70046 10.3398 3.74444 -0.340617 
10.5687 4.14392 -1.0582 9.85919 5.13691 0.436912 10.445 4.9304 -0.623082 
[...]
CELL_DATA 2484
SCALARS scalars double
LOOKUP_TABLE default
-8.5578284962 0.86251048702 -1.5223779453 -0.83501245363 1.7120691792 4.0926247267 8.3074186406 4.114159835 5.8939372727 
-1.2583297773 3.4137963703 -1.4606683752 0.47633119928 2.6479699161 1.0441609847 1.4884969289 3.8215742116 3.8146803122 
6.3835218746 3.0576198377 2.3699929447 -0.22482913125 5.7241467193 -1.5321741155 1.4166168972 2.1190367475 6.1298411704 
1.2921425711 2.6929736252 2.2134397618 5.4132117826 3.6232068914 2.2407074389 0.54826156517 2.0672241631 1.4721296283 
3.6220883298 9.0208143635 2.7564542792 6.8171874507 1.217305201 1.1147180028 3.4527943376 2.3793622342 -2.3296013562 
-0.810692169 -7.488272175 0.76854897525 -0.33536093295 -0.96706174425 -6.2985105022 -2.5687881995 0.88460559318 -2.4065075901 
3.5557311758 -3.0847453909 -5.0615787197 -2.8139813433 0.40541199015 -6.1916668126 -8.8268080106 -0.98302240863 5.2984570845 
-7.9977264499 -1.1149014025 -6.5398336726 -9.7369473275 -6.4202129666 -3.9460211232 -0.90123066064 -4.6804612833 -4.4589143449 
-1.8299608907 -4.9099242273 -2.5431912693 -1.2958692356 0.79390936674 -0.30812102047 -1.8312979173 -1.0213069846 -3.8443408206 
-1.6026481217 1.8179212769 1.4762104387 -2.169196442 1.2928785777 2.3540517773 -1.9831009889 2.6504027131 0.9908844606 
-0.029778579552 -1.2239204675 1.3553217776 0.0079818593733 -1.1050681555 -1.7850976352 -3.8702938479 -0.40397553607 -2.0005417994 
-3.4042779007 3.5801892614 3.8492456616 3.6206707008 2.2449836975 0.25456152674 -0.10318047081 -1.5166198015 0.97671040126 
3.8291384716 1.171461032 -0.94608705217 1.2222100395 0.42505492022 -1.4082524859 0.064124627974 -0.25393152668 -0.80261752691 
-1.0153245678 -2.0573181043 -2.8532269463 -0.2164762097 -0.66952906517 -0.8479866093 -0.89006804241 -7.3810437523 -7.2293607944 
-8.9404285473 -7.8906045435 -5.7201483915 -9.3986538311 -6.3054321458 -8.6864910931 -0.99300793326 -2.3361624326 2.1618294117 
0.4518636528 -1.6145414837 -2.5117901539 -2.6451364142 -4.8366660836 -3.0673016845 -1.4435756348 -6.9629807285 -1.7171312414 
-1.052187408 -1.2293271194 -3.1248388461 -0.91169506976 -2.365243185 -2.3284342548 -1.5332179589 -3.0266851568 -2.6467570028 
-3.499693369 -1.1319472864 -3.7297494648 -5.5133293692 -3.068883415 -0.98443144126 2.9704759397 8.5902624085 3.2280150383 
1.095465087 -3.0690295644 -3.3062861252 1.1474160779 -1.7229689215 -9.2620375309 6.5012871829 -4.7287297899 -0.37988389148 
-5.5056094963 3.6513527505 0.91953278013 -4.508819321 9.2025011858 -6.2562413293 5.1635621789 -3.8263170677 -7.9590716029 
-1.7185169767 -5.9354711444 0.98617187249 0.27880680063 4.9126504146 -4.9449469534 4.3145263444 9.8458703144 9.0303924302 
7.4036124902 4.0480702218 -7.7126615865 -4.2720549916 2.1972230567 8.1618692153 -6.0008979048 4.3042355964 6.653397682 
3.9337225546 -4.7537524524 -3.3127835724 6.9746445613 4.8654443836 6.4174884807 9.6963755091 -7.7096732531 6.5708659351 
7.5826138781 7.9284946878 7.6733789366 -1.528014549 0.10280594788 -1.5155471236 1.9827947386 -5.8905591224 -0.86931971745 
-4.6953956503 1.6853850721 2.2850302021 4.1919280234 -8.148716467 0.96619820482 0.16003058032 -3.2632793792 6.5365133188 
0.63736833605 2.98825758 4.7152216135 -9.6011552523 0.84586098636 0.73666088244 -3.8502234427 -5.4292358003 -4.0459871091 
-3.2874117828 0.45210305328 0.78929093402 0.81435469937 -4.3105603582 -0.71031682808 -2.8712335785 -2.7065409089 0.99812808208 
-4.1404179673 -3.293403898 -4.9253697492 1.7203747933 1.675879448 -1.8383292808 1.6157846133 3.4713641029 2.2083041604 
3.3841123809 3.0699528065 2.5139665387 2.5341281961 4.4475860164 2.9197079667 1.6484756907 6.9853506542 1.4305658372 
1.9807469445 5.1734114811 4.1542073122 2.6843231636 4.138367301 4.9194054381 1.1723057548 3.2901100128 2.5823719662 
1.4365926607 4.907770482 3.8027033018 2.8817806546 3.3991747262 4.8862523297 4.0179431343 4.3533352019 1.5088732268 
2.4843595534 2.7744427569 2.1747463184 1.3376676042 1.7589590383 -2.1359497485 -0.49838194312 1.5091589151 1.1762392153 
1.5665279929 1.8272817489 5.5266707508 2.5197308424 3.445919388 6.3456699759 -3.8095153454 0.41839709707 4.1625783839 
-1.8388650278 1.0184252614 3.3656085659 4.5497041258 3.2178944141 4.1823593557 0.071590212302 -3.1811503812 -1.0969120993 
1.4941771083 4.8263791398 2.2237134973 2.0517491451 4.0472796631 2.410179602 3.932165096 2.2987486992 2.3520398976 
1.4309136743 -1.0041588226 0.34562809642 3.5573612963 2.542875699 3.2308127741 3.0548264523 2.5197767402 0.49485091032 
-0.80552235358 0.14277173518 0.15069005921 0.39320302478 0.35546669615 0.77742565971 0.35262648986 0.82612806997 -1.004259298 
-3.2317501884 0.82388449029 -0.19558452765 1.5514694075 0.9388844466 1.3738035745 -1.2469423753 -0.35337522466 -0.078331942654 
2.8039870837 -0.4735888411 2.8668575801 3.2549933193 -0.93612755774 2.971311181 2.4903636431 3.3631502101 3.5990160896 
4.6405069263 4.8440780915 5.6039520867 3.0331997743 0.71012533805 -3.4823271887 -2.14923086 0.083598369904 6.0838764082 
-6.6606108673 6.599807147 8.8681976795 2.9396075467 6.9583489698 5.5400701116 -5.4856649173 -4.410774367 -5.2358621568 
-5.1635716176 3.9299795241 3.4650288171 4.4739637064 4.4690907295 -7.3150798694 -2.0153879533 1.2555917716 -0.70460702984 
1.5112943058 -7.0225810073 -1.0884143477 0.64575346821 -3.4642705968 -8.3926305713 -4.9725982287 -4.9872558591 4.9329617539 
-0.42099162634 6.6682096245 6.3142612221 -4.0804954063 2.8753900926 -3.5853073002 -8.6513405787 -0.52147464492 -6.7869847897 
-5.6422953296 -9.9867102726 2.0160311424 -9.943429308 -5.1758266519 5.3928086211 6.6426212952 -0.22181445118 1.5420818245 
0.40266473335 -7.3688193745 1.5395874585 -0.99243241578 -3.3892026734 -9.508943495 -6.2729234512 8.3673656908 -8.2579902949 
1.008377037 5.5249340735 0.046719948771 4.8904301018 0.69137277549 0.91155299661 1.2664898952 0.35401695706 0.0015520441187 
1.1134173543 2.0244190848 0.40891336382 -3.2279704295 0.10315254685 -0.99817496859 6.7868767237 4.5595247832 5.7706318543 
4.3116053515 5.0546072192 2.3894240276 2.1315805233 2.1701757837 -3.1845053321 0.48950081561 4.8647383111 3.9391399704 
4.3999554723 7.2191610359 -2.5136932834 1.2184045149 0.27349606244 7.2806689666 3.8806741916 -1.2644060227 5.2772242071 
-2.5076977904 -4.0216309979 -1.9465483479 -2.6691256142 -2.5854590019 -3.7881294782 -5.2132989333 -5.2386166266 -5.7956548715 
-6.2227861614 8.201441887 -9.4301165074 -6.0798863624 -6.1083065419 -1.9654850217 -8.9524657666 -1.8653431291 -4.2714644038 
-3.2734402093 -4.50443702 -4.9244817322 -4.7764224374 -5.5105792148 4.6278874683 2.9370045802 1.3752163655 -2.8981130729 
0.5963904265 1.0067139832 7.4960475326 4.0950719915 7.7761180408 -2.7474999882 -3.8439936821 -5.3679550509 -0.41566852356 
-5.3984650577 3.7884064827 -4.0578089538 -5.8866796074 -3.7141881438 -4.3909290113 -5.2095277231 -3.2101197909 5.1233914812 
-3.3056338583 -3.6105945205 -4.1644445717 -2.0055808215 -5.5233647865 -2.5093798445 -0.09431651892 -1.0896246944 0.24957028045 
-0.054316329398 -0.11475338187 -0.47320678762 -0.42525023491 -3.351672091 2.525255627 2.8145784648 -0.22608459027 -0.056923470332 
-1.5416317319 0.11355387626 2.4543165746 0.72058544419 -1.5014053044 -0.37861187516 1.6399573657 -1.4618621197 2.1970032159 
3.3778869088 2.3011836691 1.8183624801 2.2270840784 3.0518248816 -4.9382927901 -3.3859313996 -5.3766987744 0.34065082109 
5.4538128408 3.320864467 4.7744429747 4.819621217 2.7479550528 3.0147663532 3.0299858992 -0.49152986245 2.1180367925 
3.025806038 4.8426938441 3.1989867167 -2.4114998248 8.9054040508 -2.7078156038 -9.4683920676 6.0324147125 7.5742365239 
-9.9602808999 -7.3415465952 -6.1334049248 -5.6010081481 6.1617119957 5.8709893232 -9.227982254 4.2664602433 5.2640240964 
3.4537626074 5.1714238924 9.2869354537 -7.256647138 -7.1696770846 -7.1885343222 -6.8046812229 -7.4163742937 -6.8447985941 
9.7807482307 -2.6225787257 -1.7961094712 -2.8038181857 8.1818811767 3.614137232 -1.1564002288 3.7282105324 0.26847004509 
-3.4376851893 5.1055166437 -2.0233415489 7.3865118277 3.3048578485 0.71148251936 8.9145499986 2.1919567712 1.4512289876 
0.090224240705 -7.1761068302 8.6652931895 -7.7237746929 -6.9220044879 1.7353600995 -1.7255992791 7.1791510883 6.1296035444 
-9.2435125032 -4.2729341716 -0.039187676553 -6.7874318264 -1.2876054145 -4.3135727192 3.9933179028 6.1596478921 7.6798896954 
7.8943618691 1.6836113724 6.8530441572 -7.0719261098 -1.1840509564 7.1151986929 3.105056159 6.2918912274 8.3013173386 
-3.9565611827 7.2074056693 -0.16132144024 -3.4726994528 -1.8371826268 6.0601548094 9.4551696134 -6.9648583469 0.33002949723 
6.7600687428 2.383840828 0.87671809551 6.9860935775 1.2558063482 -5.6462843503 5.7658311337 6.7917211804 8.6159931403 
-0.72617174369 4.4687870895 -3.1694278911 1.2409802179 6.5542468118 0.91384090333 -9.3540008367 7.1262513586 -9.062485216 
-8.4445314266 -4.2034667088 -5.3948653614 -7.6148564628 1.9105957076 2.6120279707 0.63488718084 0.13066554218 1.015029297 
2.3414179809 0.5824122901 0.59371040844 -0.76107865539 -0.36115256008 -0.14995800965 3.190059566 0.82310098889 0.30083424533 
-0.33274486823 -1.4851849672 -2.5158465537 1.828237091 0.40157066561 0.23533504251 0.11138443067 2.4045192718 4.9672237258 
5.26241172 4.9441268496 2.8351512861 4.986567311 -2.8756962468 5.3125171817 3.4753714636 1.3755683699 -0.33471839021 
-0.17033087822 0.76518183066 3.0933782245 -2.4948319988 2.0888968249 -0.45905007361 -2.4762606738 0.44310627008 -2.5404279992 
-2.9494821831 -0.69783265821 -0.14187983303 -0.14535425948 5.2800659871 2.904958951 4.4284677143 4.4355081643 1.2186839649 
-3.398483803 0.66598153165 -3.3471642438 1.9179628419 2.1627831638 -0.32658131972 2.0846858261 1.235329868 1.9261589065 
-1.4654348026 -1.7635934468 1.9755822447 1.0375811274 1.2804100712 1.0207304417 6.0188569983 -6.8060306063 -7.7934701506 
-7.0942961536 4.4641599805 -4.4708765444 4.4098157742 0.048307965538 -4.6084754391 8.1343143425 7.9531879856 9.4920666287 
0.15923893396 0.32207783094 0.52984617309 0.42982764585 2.0499988071 2.9872977267 0.19777274574 0.85287447248 -0.21240299721 
0.78907568905 0.31123757214 0.5586047949 0.22564882819 -0.27006262012 1.246161134 0.097264912849 4.5637912991 -2.6476414074 
-0.10393632553 -2.1146123634 -1.8431537757 0.41908243385 -4.4455248382 1.0230303743 -4.7855669907 -1.9415312748 0.23905454232 
-4.413618336 -2.1871544971 0.7078907356 0.015261409847 0.68607921025 -2.1868386533 -5.7903157826 -4.7226202918 -4.7273986425 
0.68670448754 -0.048059840163 -0.18272076479 -0.44271634065 -6.1481277662 -3.6907893463 -2.0637989431 -3.8148814208 1.1933990664 
-1.3459155838 -1.5546798931 -2.1158393731 -0.98598181562 0.43160772455 -1.0350408832 3.4093332146 -0.38868107381 -1.6688480608 
-2.3727988791 -4.4836261476 -8.1691719565 -0.015768587411 -0.0052106592343 0.024445552639 8.7011324025 1.7362920538 -4.4490912121 
-0.36971258411 -2.6686907326 0.5518015388 -2.4890222281 1.5944873137 -6.4268091115 1.4867127448 -0.32936929817 -4.849231449 
-1.6919268982 -0.60998543732 -0.4809873299 0.065520745623 -0.50356947877 4.5898189691 -2.0755219563 -0.7773043215 -9.3136397202 
7.6572236341 -3.2053564223 -8.4111962297 -0.10238873032 -3.1334782971 1.6312149425 -5.4472953874 -1.593019666 -0.026820351946 
-8.5035192576 -7.5314881302 4.5328955283 -4.8835685683 -4.9578506467 5.1294894336 4.1625248311 0.54807396701 0.20446759883 
0.62003060602 -7.4251322144 -7.7969297385 -9.1804707054 9.8656306624 -0.3152237438 -6.4395962067 5.3902152438 9.7955479674 
-1.7541202922 -7.8286571509 -7.0620450186 -6.7429304734 -1.8709879227 2.954617541 1.7593808706 5.2936822718 5.4414201236 
-1.5780361342 3.2439204723 2.5706548233 -0.74477000009 2.2546098986 4.4704595745 -7.8933397853 -8.9013840384 -8.8532973634 
-9.5606283177 -8.9593760784 -6.9744780483 3.3545997406 3.2651561677 -1.7986024197 -1.2604369194 -8.8157673191 -3.7143266272 
4.3233150866 5.4976519108 1.3488726724 2.569322499 4.7109796553 3.4956313691 3.4419546436 1.4773671688 -1.0851663515 
2.7129480299 -4.0931745871 3.652003535 -4.0435194583 -8.6282646559 -6.93776402 -8.6355958402 -7.1580660831 -8.6681080297 
-5.0113642341 -4.6873724697 -4.933978446 -6.716783203 6.1754617152 -9.7654578008 -3.8447955742 -7.5770182205 -8.2688733994 
-8.0267897365 -8.0327493923 -8.0759143947 -8.5721029518 -8.3453029992 -6.8482993311 -5.2783896606 -3.7377870266 -5.5001550946 
-9.1581524959 -4.0212693197 -9.6770205136 -7.2504672618 7.9279929215 -4.7687680934 -7.7629433702 -2.5286348588 -6.9244081012 
-5.4542011002 -5.8718688412 -7.4495086387 -7.9210245846 -7.0798522905 -6.9759204115 -7.9603683602 -6.8483941636 -5.4928373321 
-6.9818716561 -6.2740641742 -9.5611611741 0.61118988165 -2.5686279558 -0.55830761252 -9.8849492843 -6.3217515904 3.1631251109 
-9.8886152788 -9.4578881542 -0.88332808321 1.5326382825 -6.7129816487 -9.0352888126 -9.3095459232 -8.8322123108 -9.7631456332 
-9.3510013565 -9.3774723148 -8.9130584815 -9.1763815984 -8.3268187251 -8.6108640801 -8.6256317616 -9.3194705421 -8.917395424 
-5.5772521769 -6.778081523 -6.0761675321 -7.0073948444 4.4054957742 -3.6886067818 -7.3501485645 -6.4730566194 -8.866833109 
-8.2083894296 -7.5284073016 -7.9472372925 -8.3049637247 -8.9623862478 -7.5878868832 -8.8430925778 -8.8474139707 -9.9599271306 
-9.5538201031 -9.7036505625 -9.6804455377 -9.8527277012 -9.627767463 -9.7823899886 -7.6256418796 -9.1331953958 -8.8377752645 
-8.0625198892 -8.8102315409 -8.5523954782 -9.1164715151 -8.6278920449 -7.4818015675 -9.594825825 -9.6899939496 -8.1628110669 
-7.2106251014 -8.5690486699 -7.8793991505 -7.2772219292 -7.6351000926 -7.6083234519 -7.2218270059 -7.6481550232 -9.5492750188 
-8.7156416433 -5.1810447386 -5.280704772 -1.7460037731 -8.6258420053 -5.8187072643 -8.9093492034 -8.0171873877 -6.6188921781 
-8.3665901537 -5.8134245931 -1.5384358325 -8.7985463156 -8.2817451289 -9.8295624802 -9.9317361369 -9.8783553096 -9.4788138914 
-8.8760326573 -6.6466393814 -9.931789829 -3.6741583312 -3.4019127866 -7.0211184647 -5.8623264995 -6.5954267786 -5.2981135439 
-9.5643849418 -5.5099766925 -3.2217899932 3.4886198911 3.7710301062 -1.0822317321 -3.0290807563 -6.4386544138 -8.1267435714 
-8.7042226601 -7.6689618806 0.91936360273 -7.2099882387 7.4569771083 -7.5172854914 5.6490699431 7.6957799128 7.9015637088 
-5.9656253975 4.1802892859 7.0886801252 -7.5236020174 -2.0269523887 3.7888388766 -5.7344977322 -2.7106459094 4.8878877596 
-0.28463118383 -3.2159059411 -2.6486115696 4.9437685373 6.0913370608 -5.5746504467 -5.8838756319 4.3398471596 9.7545831596 
8.1026605366 -4.5588338038 -0.93688075104 -5.4079551143 -3.7146929997 -3.8460502952 -1.446960537 -9.0710625222 -7.1215671889 
-7.0435642162 1.3356237052 -4.4582300884 -8.8408929059 -3.057283558 -6.9872605171 -7.3659354917 -9.2598352901 -7.5145481571 
-8.9084696594 -9.4552616263 -7.7068342339 -8.7665979245 -8.7423163069 -9.3478027876 -8.6598028936 -8.7390127973 -7.3645601164 
-8.8931022528 -7.1734643655 -7.2285915923 -9.9305949121 -7.8441126689 -9.958530714 -7.1707694904 -8.4322417708 -8.9135694146 
-8.3970508579 -8.0863734629 -7.8688911513 -5.4947280576 -8.5900845636 -9.3993827608 -8.867945783 -7.9310476242 -9.9265227879 
-8.6676512593 -5.6817067341 -4.0359367764 3.6877721883 -4.8444129448 -8.2734387929 2.6065563829 1.9217353028 1.9308982704 
-2.0002596033 -9.8590129728 -7.5171920717 6.8662934304 -6.5148774103 -6.9648137645 -7.9679275703 -7.7692394507 -7.4482772602 
-7.1155011238 -8.3390273035 -7.13472814 -8.6289358756 -7.7050486572 -9.731428311 -8.4153733963 -8.0697525965 -7.6701084368 
-7.6547875155 -8.0505552507 -2.654072187 2.9782133705 -9.1274615219 -2.2513614464 -0.25302861747 9.4727695154 3.936412581 
-7.0429571834 7.366459278 -9.1112410233 -6.5700779551 6.9925581239 7.8336703418 2.5159147008 -9.3485577818 0.34193229899 
-1.5420810055 -9.7214637928 -9.4780712347 -9.4384282378 1.7679845376 -0.48998599622 -5.6800518466 -5.7771034786 -9.5305623933 
-3.2237711833 -1.1854782246 -3.6853557185 -1.2018163162 -9.4847184636 -0.78671017425 -9.509253491 0.0062769857337 -7.5200223515 
-6.0357586544 -3.0766711156 -5.1150463661 -6.9408195372 -6.5675006197 -6.8234221643 -6.209629003 -6.9790131977 -6.938189566 
-8.5774424736 -4.5849671709 -9.3131286597 -9.6581753454 -8.8952715748 -8.8320567062 -7.1555171771 9.4135545508 8.8513314462 
-9.4737186153 -3.2138660576 -7.0279420445 -8.8142886385 -6.326843816 -9.2764590355 -9.1253449864 -7.2065449911 -0.48375124657 
-6.9853093618 -8.221082994 -7.2514547561 -7.5607697024 -5.924109648 -7.7289646366 -7.8689313143 -9.929268091 -7.7237601486 
-9.5436360335 -9.8131808968 -7.2117065986 -8.2881385652 -9.4263537694 -7.9335040602 -6.9573019011 -2.3241790101 -9.9118760368 
-9.9125665773 3.2089046899 -9.8981495704 5.4641921532 -2.6344589646 -5.8066140054 9.4973632978 -4.6609953865 8.206264656 
-9.8154397717 -7.7104344611 4.2656779115 4.8938920132 -8.9061567453 -9.2573226849 -7.6420754195 -9.0487860686 -8.4997593437 
6.9892887565 0.39796193584 7.2786404583 -6.2784519023 -8.4557538844 -7.3194457715 -8.4123366485 1.3919478131 -7.3822471846 
-9.3414884654 -5.2436863343 -8.1824541534 -9.1067202842 0.78965484885 8.5771598221 -9.3538421561 -9.8403528637 -8.7730307913 
-9.861644564 -4.532735407 -8.529321741 -4.9826434618 -1.7709460434 -9.0890969794 -0.18672977726 -9.6703941091 -8.8106156963 
-6.1538372376 7.3078695074 5.7420259164 5.7479050881 -2.7580722081 -1.004990549 -2.4594563919 -7.4641968476 -2.038088836 
-2.6892971004 -0.76065452957 0.37968076533 -3.9980454049 -8.0307367537 -5.2021836333 -9.1655315467 6.752204959 2.9432540393 
-1.2884505306 9.1924935905 -3.5586619032 -4.7062681055 -1.4256432451 1.8991602526 -3.8688029457 0.21315791793 4.2771603831 
0.52475422874 8.6458874898 5.2655263699 9.6107586834 8.9637362667 7.4646705242 -0.22026286532 7.1167477812 7.4966649171 
9.0815839405 8.2845501662 9.8797998831 9.2933461878 6.7879508927 5.701006094 6.5044110651 6.6265928602 9.7145362207 
4.1554477386 7.7781023302 7.3099848097 4.9837295254 9.8961037608 7.9337633937 9.7913877046 7.6878433776 9.3028382129 
7.6767580083 7.5806817449 6.5821169177 7.4642039939 7.4094908909 9.7241580695 5.8584086224 5.0882259934 9.434620986 
6.5271072557 5.1147887591 5.8125758456 6.8198713391 4.8251771587 6.8687845722 7.7103041705 5.9042200494 9.1619643518 
9.3425305474 8.8990180143 6.4472537262 7.9280601866 7.354966352 7.3061932084 8.7496538459 7.0816694566 7.8518908303 
7.8451942769 5.690536643 7.9772938114 2.9636434872 9.8544553643 9.9585445909 8.3671619408 9.5011269507 1.7865458917 
7.9329497056 9.730324131 9.8623702053 -2.4222518878 2.4694712926 5.5799525825 9.5717760321 8.887767529 8.7447116764 
9.8163725026 9.9908109036 9.1544487839 9.7765584707 9.5522337273 9.7316633927 9.5724127566 9.6956760293 8.7621359212 
9.8397857411 9.4121424174 9.6248594585 9.8110510372 8.3390405767 8.8216548779 9.8401804739 8.2115888361 9.1832419125 
9.7391444046 7.3571360703 9.7893916264 9.7800238207 9.7038933146 9.8425756644 9.7040334795 8.620381506 6.1187222509 
5.6212640515 8.3602651006 4.2063146527 5.7182951564 5.046358673 5.4357084353 8.2510957307 8.434018775 8.0391525619 
7.9938934993 7.3931496884 7.2513622487 4.3025967055 4.6725608887 6.0434276002 7.186226737 6.0555956208 7.1869674254 
8.5931694437 7.1755530605 7.1707108017 9.1441594076 9.3345016974 8.719522873 8.4630258701 5.2876410673 7.3336898601 
6.0568970279 9.1718636442 9.0448394509 6.1784630209 9.014336498 9.6539030352 9.3258027414 9.9991667677 9.5889293283 
9.3217451038 9.6534602969 7.0801063363 5.975465803 8.1906258163 9.7765717436 7.3552253504 5.9066971918 9.9960143724 
7.5169356116 9.7158653595 7.1852428745 8.5561259092 9.6150482062 8.7890126495 8.4232721604 9.7799073943 9.7479654951 
9.8677730552 9.8182860838 9.7894062955 8.9271648246 9.8366923637 9.9163164341 9.523267986 9.1904908245 8.7149209179 
8.4986455747 8.795650361 8.5558920841 7.8658442066 8.3292248233 8.6427722681 9.5419221845 9.3661600585 9.2358211648 
9.2411277906 9.7118859095 9.6177052168 9.8003182692 9.5350228326 9.5474166262 9.8655483785 9.6093924118 9.9563747734 