# vtk DataFile Version 5.1
vtk output
ASCII
DATASET POLYDATA
POINTS 1244 float
-2.35462 -3.00326 -2.58717 -2.82948 -3.3832 13.3591 -3.86943 13.256 -3.71981 
-3.04666 13.4566 13.816 12.8148 -3.42713 -1.74136 12.0353 -4.11354 13.2685 
11.9219 11.103 -2.40686 11.9803 14.0522 12.0069 -2.82273 -2.80555 -1.16775 
-2.88582 -2.60723 0.546677 -2.67526 -2.61606 2.55255 -2.17232 -2.44566 4.18597 
-2.29587 -2.50323 5.99479 -1.95806 -2.46523 7.91321 -2.17259 -2.06294 9.38074 
-2.33225 -2.40004 11.3076 -2.4532 -3.29561 11.5494 -1.82412 -1.88804 -2.06585 
-1.96152 -0.77592 -1.81276 -1.65014 0.359952 -1.62226 -1.73314 2.14282 -1.78871 
-2.28363 3.94441 -2.23958 -2.14672 6.24243 -2.87033 -3.28218 7.79219 -3.40429 
-3.81056 9.74238 -2.77324 -4.20214 11.5748 -3.43758 -3.50132 14.1862 -2.05031 
-3.30108 14.5335 0.0466833 -4.10236 12.9051 1.94877 -5.4878 10.7969 3.19368 
-6.41296 8.16512 4.6765 -6.01991 10.679 6.52705 -4.484 12.7126 7.74639 
-3.69318 14.3385 9.72922 -3.21117 13.6311 11.7653 -2.89831 -2.03706 12.5854 
-3.18329 -0.382725 12.0288 -2.53115 0.690427 11.2558 -2.50004 2.16998 11.1804 
-2.1185 4.11992 10.9376 -2.29008 5.96801 11.5317 -2.22862 8.13675 11.4455 
-2.69114 9.51515 11.9279 -2.73454 11.4138 12.8189 13.5556 -3.84659 -0.631757 
13.6122 -4.16609 0.73644 11.1956 -4.81732 1.33002 8.54236 -5.54173 1.55306 
8.91574 -5.53152 3.57683 8.71006 -5.68889 5.70274 10.1135 -5.25823 7.5692 
11.3921 -5.22662 9.66088 12.4115 -4.44562 11.4692 12.5362 -1.73691 -2.40814 
11.5009 -0.275096 -2.05038 11.3668 0.863178 -2.08411 10.8727 2.23724 -2.0826 
10.6883 4.3022 -2.04235 11.4114 5.8625 -2.35696 11.3569 6.90401 -1.95791 
12.7111 9.24377 -2.57338 12.8804 10.4629 -4.19472 14.9477 12.0745 0.748251 
9.78566 9.92109 0.487504 6.90563 7.09226 0.998055 5.47524 5.48356 4.03511 
9.84873 3.88937 5.39978 5.8528 7.3914 4.25772 5.52244 5.9297 7.47173 
7.70015 10.0578 8.39635 13.3023 14.4863 10.4975 12.438 -1.92801 12.3063 
12.1582 0.0264235 11.3772 11.881 1.31696 11.2591 11.6916 3.54335 10.594 
11.1751 5.45306 11.2074 10.6222 7.66656 10.5715 10.698 9.8042 10.624 
11.2042 11.1934 10.9461 11.7983 12.4121 11.4958 -1.21783 -2.95232 -3.4474 
0.360357 -2.55321 -3.98156 1.97964 -2.13326 -2.99579 3.45056 -3.06151 -2.40447 
5.46778 -3.11116 -2.26638 7.30301 -2.36054 -1.87784 9.03633 -2.37226 -1.94875 
10.4503 -2.55969 -1.78262 11.5246 -3.03624 -1.99425 -1.10449 -3.68551 13.6551 
1.01511 -3.18888 14.4105 3.69011 -3.15474 13.1118 6.68401 -2.25525 13.1455 
5.14059 -6.53984 12.6899 3.69619 -6.14956 9.67925 6.12516 -5.54196 11.0743 
7.62093 -4.18822 13.7846 10.0844 -4.26114 13.9679 -2.13236 13.1482 -3.78865 
-0.565408 11.6387 -3.88553 1.51762 11.7797 -4.15577 3.15992 10.6557 -3.68219 
5.18256 10.4665 -4.35288 7.05981 11.2647 -3.87814 8.38456 13.0429 -4.08918 
10.4226 13.4539 -3.71345 12.1925 14.079 -3.05839 -0.745786 13.249 12.9923 
1.98903 12.6028 13.611 4.75705 11.3872 12.9242 4.83253 8.1931 14.1864 
5.45197 10.4265 14.494 5.46985 7.459 14.0129 6.66607 9.0877 9.72228 
7.79529 14.3898 12.1129 9.73078 13.8776 13.0768 -2.0805 -1.01677 4.74741 
-2.5362 -1.07614 1.02105 -1.44929 5.6367 -0.468737 1.27746 10.3542 3.88707 
-1.42354 8.64189 -0.307166 -0.696107 6.33021 7.91776 -1.11929 8.79798 9.83542 
0.348626 9.20144 3.78181 -1.98249 -1.07907 8.23958 -2.25724 2.58979 10.0887 
-1.99577 2.77205 -0.662265 1.09933 6.21387 6.32732 0.642716 3.25039 4.39605 
-0.211578 2.71706 5.57399 -2.32278 -0.918514 9.91627 -1.96898 -1.15638 6.61242 
-2.38 -1.72505 3.25878 -2.32692 -0.937007 -0.754645 -1.71533 4.70126 9.33508 
-2.00581 5.20743 10.7167 -1.89735 6.71765 10.5201 1.89789 5.55547 5.49307 
0.54153 8.21723 7.5533 -0.755652 10.0936 8.96801 -1.15037 12.1525 7.64712 
-3.49669 6.81229 5.39245 -1.97058 4.62774 0.608935 -2.09726 5.2037 -2.26287 
1.01137 6.67244 3.16654 -0.550541 7.33938 0.411904 -0.230625 8.66101 1.2008 
-3.47368 10.729 4.41049 -1.19213 12.5269 1.47095 -1.20921 10.6274 0.383404 
0.865054 5.22704 3.09334 -1.96629 4.99684 3.43463 -2.43096 4.12739 4.83422 
-0.414254 7.748 3.37111 -2.52829 7.262 3.29328 -1.07959 3.64149 2.25704 
-0.963456 2.46287 1.35084 -1.76386 1.03058 0.621966 -1.30016 1.01927 1.96505 
-1.3761 1.08788 3.74588 -1.51399 4.54127 7.57238 -1.4649 2.54533 7.86227 
-1.01965 0.959685 6.15244 -1.69359 0.880703 7.47628 -2.06434 1.14255 9.07656 
1.12085 2.65762 3.63973 -1.57856 4.87459 4.95916 -1.07739 3.8323 7.39968 
-2.22149 -0.754533 8.92708 -2.12329 -1.03216 7.31688 -2.22764 -1.36797 5.70271 
-2.25629 -1.48359 4.34386 -2.75323 -1.99971 1.8813 -2.30724 -0.646897 0.209479 
-2.01002 3.96569 10.0028 -2.02204 3.94316 10.3048 -1.77995 4.92391 9.88088 
-1.10416 5.2072 7.93337 -0.994875 5.60802 9.01798 -0.807682 6.29189 8.72859 
0.475564 7.08732 7.18583 -1.0646 6.86123 9.47071 -1.03119 7.99322 9.51255 
-0.264819 8.09568 8.58827 -0.488204 8.61317 8.74764 0.857825 7.05156 7.15647 
2.36517 7.57604 3.83176 1.37406 8.70683 5.96505 -0.87961 9.15646 9.52314 
-1.58945 10.3389 9.99506 0.312276 11.3385 5.45779 -2.60814 10.0943 7.24672 
-3.48007 12.1227 6.1662 -0.548145 10.8873 8.65954 0.36908 9.89807 7.41816 
-0.0443614 9.02119 8.18924 -2.32419 6.97119 11.2496 -1.78085 5.70329 10.1928 
-2.07353 3.81631 -0.295574 -2.03277 4.11029 -0.853595 -2.19815 5.01342 1.60052 
-2.17501 4.77706 -0.185314 -1.8402 5.58935 -1.31987 0.224959 6.22094 1.7297 
-0.600883 6.85861 0.387229 0.131197 7.10648 1.8304 1.15845 8.01038 3.19337 
0.300744 7.86984 1.93728 0.592938 8.93895 2.38142 -0.289032 7.92503 0.895453 
-1.13311 7.66051 -0.350351 -0.940855 8.39067 0.184094 0.0928804 10.5035 4.51466 
-0.140192 11.3017 2.86958 -0.845723 11.7425 3.40942 -1.17101 9.39915 0.10694 
-1.57696 10.422 -0.180173 -0.552019 10.0407 1.26811 -0.618853 9.41841 0.771263 
0.0840908 9.5117 1.97931 -1.5715 7.21245 -1.18662 -1.62288 6.64346 -1.56562 
-2.49761 7.12491 4.34507 -0.720988 8.88529 3.40348 1.50779 7.67962 5.86246 
-0.49215 5.6086 5.47099 -2.96519 6.81453 4.02442 0.150376 8.07992 6.10921 
1.7102 5.71224 5.32468 0.459932 5.40385 3.52934 -1.75272 6.02297 0.550523 
-0.311689 3.3934 6.259 0.600131 8.12362 4.1933 1.78339 5.51202 4.19161 
0.0111396 4.86961 5.65574 2.90543 7.66853 6.30298 -2.30853 4.32112 4.73951 
1.91868 5.79567 4.82147 -1.91148 6.95138 0.852866 -0.0417692 7.89359 3.96199 
-0.879531 6.04241 7.23273 -2.62581 8.5568 5.80512 1.09778 7.87066 6.78233 
0.230364 4.14747 6.42916 -2.23298 5.34123 2.52097 -1.45616 3.72456 1.19277 
-1.433 3.03891 0.500971 -1.48459 2.61223 0.211937 -0.691442 3.03092 1.9781 
-0.0919403 3.80812 3.41293 -0.193253 2.69798 3.01476 -1.75106 1.97128 -0.535693 
-1.69712 1.05727 -0.58039 -1.94023 0.421883 -0.290825 -2.04033 0.141882 0.949842 
-0.673652 1.00394 2.85701 -1.37932 1.74096 3.18872 -1.99835 -0.896829 2.54941 
-1.85834 -0.0200739 1.58463 -2.65288 -1.39896 2.24255 -2.02579 -0.551986 3.78557 
-1.75003 0.165749 4.37558 -1.4427 1.29305 1.29157 -0.741929 2.00568 2.08455 
-1.43253 1.83939 0.568065 -1.51749 5.37633 7.21372 -1.67453 4.41872 8.60314 
-1.33155 3.47671 7.4224 -1.54429 3.4125 8.09165 -0.761338 2.69511 6.61191 
-1.67042 3.46375 9.0427 -1.98656 2.81565 8.93394 -0.37626 1.76707 6.03726 
-1.05605 2.0022 6.81145 -1.32212 0.87464 6.72718 -1.65826 -0.45753 5.60984 
-1.60736 -0.193316 6.30662 -1.63483 -0.160964 7.13224 -2.01215 -0.0159071 7.92065 
-2.25164 2.15297 9.51352 -2.24299 1.07939 9.8803 -1.93033 0.255451 8.74786 
-2.34081 0.141409 9.82929 -1.90795 1.05337 8.13736 -1.71027 1.88524 8.7087 
-1.25975 1.83883 7.758 -1.35887 0.333755 5.42045 -0.224965 1.66409 5.20964 
0.602549 2.69077 4.62268 -1.10043 1.31418 4.66339 0.973674 4.74926 2.2197 
-0.991415 3.76751 6.4894 -1.71883 4.61012 6.87469 -1.78595 5.69784 5.8465 
-1.95536 5.32217 5.07372 -1.76811 5.34809 0.749883 0.652596 5.1164 5.63391 
-1.0025 5.72762 4.29056 1.49002 3.73044 6.09181 -2.10203 5.81887 6.33597 
-2.60035 5.88107 3.68397 -0.781667 3.58336 0.14072 0.812626 2.64114 1.38128 
-0.603728 3.68602 5.82763 8.24603 -1.93496 4.7449 10.5442 -1.03601 1.50883 
9.72534 6.06707 1.12085 11.5746 10.0186 3.79386 10.006 8.44784 -0.669965 
8.64218 5.72964 8.22874 10.6222 9.17177 9.49186 10.863 11.7527 6.02517 
9.20979 -0.718745 7.53243 12.2888 2.1469 10.7521 10.4989 2.88163 -0.666665 
7.92664 7.47278 2.95189 9.19067 3.0779 3.2377 8.57995 4.18059 6.87067 
10.9344 -1.45577 10.1576 8.5111 -1.67956 6.36855 8.45701 -2.16104 2.71894 
10.9705 -0.407262 0.083134 10.831 4.92631 10.0444 10.4682 6.29566 10.3279 
9.44914 7.05576 8.83932 7.57905 7.87794 5.40544 10.4498 8.962 7.09812 
11.1492 10.2512 8.57475 9.96786 9.98536 8.82693 10.9145 10.2947 7.46383 
10.0034 4.36979 0.0344205 10.5343 5.44981 -1.2062 8.89993 6.9624 2.60029 
9.26682 7.47684 0.584271 8.68295 8.95225 1.17961 6.46682 9.82658 2.72564 
7.30686 9.88074 2.15494 10.3857 11.1945 0.925148 10.2194 6.71987 2.56556 
7.95161 9.07434 5.87515 9.92827 5.167 4.35898 12.6087 6.19005 7.80919 
9.41416 4.75401 5.23911 9.45007 4.0107 1.74374 9.76809 2.49746 0.922516 
10.3521 1.10309 0.217098 9.06858 0.873678 2.09301 8.41539 0.375548 3.42167 
8.64686 2.43541 6.68025 11.5017 1.79327 8.59782 7.89791 0.980709 5.9294 
8.69451 1.39589 7.11606 11.2714 -0.119906 9.47319 9.01132 2.04116 4.37022 
8.6076 5.54244 6.37302 8.83564 4.99696 4.89059 10.0661 -0.644165 8.30109 
8.89145 -0.874232 6.95052 8.19589 -1.66101 5.85917 8.27483 -1.3965 3.90457 
9.51568 -0.408687 1.95977 10.642 -0.399366 0.925284 11.9539 3.14709 9.69137 
11.3612 4.5062 10.5509 10.3533 5.60167 10.006 9.38971 5.15347 8.89923 
9.40588 5.943 9.19855 8.89783 6.58706 8.16388 8.29221 6.80819 6.75467 
8.65827 7.36793 7.2035 10.3545 8.0172 9.63469 9.87197 7.79248 8.70785 
10.3279 8.40879 8.70823 9.47492 8.0521 7.91435 7.25355 9.22546 3.47831 
9.88609 9.70887 2.42513 10.6063 9.25569 8.90495 11.151 10.4501 9.24198 
11.4125 6.95116 8.35346 6.28469 8.64019 7.03164 8.51757 4.39229 6.60744 
12.655 13.7253 7.16011 11.7548 11.485 4.63562 10.8855 9.51409 7.86887 
10.0929 7.48323 9.74617 9.88041 6.50363 9.83269 10.2223 3.77854 -0.52247 
10.4884 4.10254 -1.12265 9.79044 5.06906 0.468203 10.3163 4.90467 -0.733045 
[...]
CELL_DATA 2484
SCALARS scalars double
LOOKUP_TABLE default
-1.169523982 -0.88663492801 -1.7143438533 -0.17371127245 5.6790886858 -2.7389652689 -1.1912215469 2.120233146 1.0277257497 
-1.7766677547 2.4859020557 -1.0832530379 0.90862996288 1.3337677113 -0.12179551272 2.4081966873 2.6861068016 3.103030668 
5.5422695502 2.9699118331 2.2414549664 -0.7526993365 0.22370303121 1.9737252992 0.096533580398 3.6414527399 1.6548904985 
2.5112590817 3.6903952633 4.5637960996 3.4095820393 6.4720896851 1.6137810956 1.6513878494 0.43773732536 1.5645393846 
8.2839020904 3.7178328229 1.3497028122 3.0419584832 0.20374599426 1.125977769 -1.4295620049 -1.2895523485 -1.4508847678 
-0.73463143355 -7.7163027273 -0.14836450924 -0.04633276954 1.6023951633 0.70236952931 0.44250138167 0.93673649539 -2.3854183507 
2.8213897418 -4.5155824175 -4.5570540961 -0.5026364051 0.50928829103 -4.8848499489 -9.5524385674 -0.75536152337 5.3886017628 
-7.4774420766 -1.4139363553 -6.8705108054 -9.5372151191 -6.6341916064 -5.0034059052 -0.41497598227 -5.9236363742 -2.9110661631 
-1.2788872647 -4.0468699678 -1.8926996972 -0.4844748295 1.2078059973 1.6780671392 -1.2914350291 -0.46843373839 -5.3696854645 
-0.87319426937 1.6896604282 1.4163218876 -1.8360480239 0.74416084548 2.1312472301 -1.918431335 -0.075442523598 0.25770358282 
0.39942166162 -1.2487057612 0.70778101862 0.37349149538 0.38050796116 -0.63583307866 1.301126226 -2.4001006928 -0.92928355743 
-6.4309862553 9.0925936095 4.4975805107 3.15137457 1.4439666274 -4.001786642 1.4627228836 -3.6342009507 0.08956716854 
1.5916472089 -1.477296907 0.70995904924 -1.4547830951 0.79798272692 -1.0060026503 -0.14953464595 -0.08969947817 -1.1110024494 
-1.8496011065 -2.4927145666 -2.165594188 -1.3171615398 0.39314124321 1.0128881532 1.2207665745 -8.7172135793 -6.7437010241 
-7.5762591345 -7.1876181563 -5.530000169 -9.2304924366 -5.7572302496 -9.0122228016 -1.5520400632 -0.78440759991 2.5094353896 
-1.5066422709 -2.1075466693 -1.2805110833 -2.807565468 -4.8257680347 -2.329894155 -1.660337777 -6.9978180954 -1.1750656705 
-0.81606699168 -1.2504228105 -3.026133482 -2.6068927323 -3.4539259024 -3.4923439351 -1.4862756012 -2.5135450859 -2.6991684592 
-3.0889406919 -2.0500619621 -3.1638416117 -3.7391249986 -1.9760679136 0.69445371769 2.358333454 3.3468612387 2.7633322177 
1.4798378233 -2.8241401608 -3.9713403287 1.1269074766 -2.486983981 -8.2742757106 5.4478533559 -4.9565739848 -0.051236504727 
-5.5711561623 3.7763167859 0.67508493593 -4.4055451278 9.1368824674 -6.3405859193 5.2308363565 -3.2875683148 -7.9357961551 
-0.90376360116 -5.2834663004 1.4404410439 0.95726183081 4.8306111734 -4.6172487882 4.5263524724 9.3991370024 9.020948503 
8.396900742 4.0119787138 -7.6447494904 -4.0766856243 2.4573595542 8.1452285827 -6.4069193781 4.6117932273 6.9244923812 
3.6422766511 -4.4921804879 -3.6392495499 6.98525731 4.4609710046 6.9995277283 9.4503089329 -8.0585328509 6.5422231346 
8.5621911536 7.7831966692 7.64021595 -1.2163567974 -0.034352876591 -2.3353492648 2.6668645814 -5.3346437888 -1.1984334065 
-4.764650446 1.9209137284 1.7889450005 4.015909699 -7.9276250938 1.1956549122 0.32279583389 -3.2885993471 5.8218918338 
0.83504996061 2.3525498164 4.4126434993 -9.6865218066 0.31206818777 4.3428122367 -4.9760539073 -5.7052557739 -5.2958605594 
-3.1917336317 -2.2568759679 -1.5723433897 -2.1771136065 -6.1095853592 -0.34616905953 -1.2145184219 -0.65994785989 -0.6693465059 
-5.9417005467 -3.2430677586 -4.3332815356 2.6897533648 -0.56062428682 -1.7506175093 -0.71087793117 2.9335594715 2.9484338497 
3.7309593585 3.2337130815 3.3918170753 -2.178773574 5.0756029247 3.9853320756 2.0438093447 4.2811761007 1.7474301528 
2.6878376664 4.8424207273 4.2954643989 0.045033155648 3.4658974797 3.6802323588 2.6803841024 2.9114989059 2.9059033954 
1.4930857431 3.6303982523 4.2739456396 8.2130096936 3.7139409316 3.5085868998 3.7695363153 3.5190830029 3.6425266888 
2.0568467981 1.8971061883 2.2188412549 3.7878670285 1.3651484893 -1.892858893 0.66420957938 1.8877929657 3.8011869409 
4.2874439558 4.5060087797 2.9668246937 -0.73714488031 4.4264093841 7.4241928005 -1.1779244775 -1.5379939593 0.48472997327 
-3.2444074523 0.50336768994 4.4835699954 1.6162089523 4.4642857922 -0.56724693901 -0.25402953206 -0.46738877195 -0.63111669592 
-1.699194972 5.6261270969 2.3754063934 2.16084447 4.4089351303 5.3392740369 3.9240117417 5.1563593373 0.96414138714 
4.2829583956 0.17938775795 3.5983611224 3.3874868427 0.95972748365 3.7713717423 2.7346711195 4.9317845032 -0.83838740718 
-3.1880492748 -1.7505765843 -0.09374573226 1.8754210809 -0.25610591832 2.0749966269 -0.3500085116 1.1261226439 0.016078584759 
-2.1498355831 1.0915733601 -0.91116592983 1.5955463132 0.82428336702 0.99827060229 2.2523428238 -1.7209657199 -1.2280886838 
4.3786203944 -1.7303630113 2.362388767 3.5372293717 -1.9751449317 4.7201433563 3.4625178267 4.6180092393 3.2929634453 
3.7414145837 4.9774396313 3.961043648 5.8954380639 -1.8048950008 3.9876046903 5.3494900133 1.975588065 5.6315906687 
-6.4489183367 6.4554088221 8.7580135568 3.7809041997 6.2177976033 5.8685341654 -2.8947139121 -1.9839851443 -6.091206821 
-4.7049059806 0.86788903322 6.8983752799 3.4667887255 6.5739910791 -6.3799966517 -4.2063731532 1.0848261707 -0.86200149771 
-0.63019373773 -6.1602474037 2.2127405742 0.97808642059 -2.9858748636 -8.5028587596 -5.501419544 -5.4929387647 5.8242320223 
-1.2526884606 6.6293513936 6.3207838603 -5.6141063735 2.6220984579 -0.71683980426 -0.85563986334 -0.26595371019 -6.5460139439 
-5.7417271687 -9.956103318 1.8051042407 -9.9918714992 -4.8391125246 5.4327292329 5.4768898776 -0.72312909951 -0.21970723669 
1.1738986073 -7.2293513984 -4.7062594928 0.02640417045 -4.6531507361 -8.9224191978 -6.1801607165 8.579534264 -8.4941928839 
1.5060232869 4.7427199365 -1.9155140855 3.229774885 1.6940865929 1.1695882786 1.4070030863 1.2805773573 1.2193588953 
1.6153397347 1.4229946325 -0.35113054495 -3.1780723778 0.68870059392 -0.43210093628 6.7786976848 5.3137488961 6.139734825 
2.9727264656 3.8438607137 3.4697099486 1.6457018594 1.8332372723 -1.8180793223 2.9014695751 5.4909407734 4.0020511708 
3.2700243276 3.9186671484 2.1444033728 2.2476486644 2.481937459 5.2212519543 3.1150833012 1.1862485117 4.6691784066 
-2.8859945655 -3.123566611 -1.176772648 -2.4109853678 -5.1469298511 -2.3909583077 -5.886090592 -5.7338422135 -5.2974004816 
-7.9339801152 8.589002432 -9.5677757197 -8.086462804 -3.3573476889 -5.0332123459 -3.8621849579 -3.0236925156 -4.4140735422 
-5.5106193488 -4.4139467862 -5.2455956228 -5.0048071361 -0.28477594415 4.2595783154 2.8421930436 1.2426020395 -2.5934499122 
1.1869308693 1.1795180207 7.6364433325 3.8337254281 7.9442534554 -3.199720059 -4.2321068494 -4.8915210356 -0.1300785096 
-5.9035926753 3.8636424609 -4.414218484 -5.1428835942 -2.9722061089 -3.4225392552 -5.3006128986 -3.7952440238 5.2470853158 
-3.8546810012 -2.3298052988 -4.7003329779 -3.9605609176 -2.5315907755 -2.7578299242 2.2640419414 -1.4506597606 0.20530056881 
0.60097322006 -2.2589829834 -2.2586214666 -0.16719996176 -3.6412119128 3.3677392848 -0.28897889215 0.82146745536 -0.15888249294 
0.33034188626 -0.31622645538 0.3716947292 1.2631573048 -2.7042502378 0.95356705962 -1.033286605 0.11325997123 2.7365545374 
4.2092859027 3.5106520705 4.0345167588 4.0108002328 0.58671275475 -6.4745682804 -5.0119795968 -6.6154988032 4.4619202361 
-1.0390649305 2.3781148277 3.9128441844 -0.34634080892 4.3261978116 0.65313851534 1.6473317829 -1.2537879031 2.1398699331 
2.8477874662 4.5642703404 3.2043740072 -2.425931181 8.9386955432 -2.5631731246 -9.3500069722 6.6219124855 7.4429639643 
-9.9636207761 -8.0030270432 -6.3201397629 -5.5786319213 6.5695664297 6.1648128522 -9.4627632168 3.902852408 5.5049224722 
2.0061862097 4.4395782041 9.1440951742 -6.8849867262 -6.2163463916 -6.5174484662 -6.4820273871 -7.4045715545 -7.813592159 
9.7435089168 3.901092254 -0.26301927496 -2.6236949747 3.308590099 3.2377628019 0.59625779897 4.0056779261 0.47221483906 
-1.8386171529 2.2054037496 -2.0714223644 7.738001112 1.7681051406 0.83872714994 8.8845100613 2.0998212934 1.8326816876 
-0.32958598547 -7.2188378361 8.701840215 -7.853447781 -6.6457832012 1.8659539938 -1.7427590484 7.4603507547 5.3197284519 
-9.3183594271 -4.9511247013 -2.6606541473 -8.6877294807 -2.4813215124 -4.3608698482 5.2178109116 6.4059666698 4.489194076 
4.7865795771 1.3249669336 6.8446762623 -7.2231599066 -0.83159909065 5.4601723164 2.3665095372 6.7272581198 8.7424858797 
-4.4291861899 7.0858235911 -0.3163318903 -3.007363227 -1.8286253695 5.3497794936 8.415505536 -6.2235818296 0.3205277472 
6.1360014422 0.86710504444 -0.52890211116 6.5510799002 1.3932093676 -6.014942348 6.1080367167 6.9554968174 8.6277161975 
-1.4574945027 4.7633682745 -2.4794372882 1.7418845715 6.4400813435 0.64383608509 -9.5916510241 7.0082019243 -8.5111873554 
-8.2582591536 -4.1211078713 -5.4438331498 -7.7223443766 1.9407872715 0.3034531894 0.78653246718 -1.0929318471 -0.87322757247 
0.38266612517 1.8661503832 0.45227140373 0.71513539266 0.4592905287 0.49670645963 1.3341770338 0.43346307173 0.29761613004 
0.45638493115 0.35530408201 0.49750254731 1.1911811492 1.7807702985 0.22048529656 1.7866484385 1.4162084445 4.6370521635 
3.8388154959 4.9269302693 1.3264652928 5.9938680445 -2.4012419388 4.6622016545 3.0512277254 -1.8834662728 -0.24948855255 
-0.33788464742 3.0455744756 0.6140842971 -1.9353367727 -0.19422652938 -2.3684051752 1.9944652803 0.34167487896 1.2360677501 
-1.6561688446 -2.8240382584 -1.3356325966 -2.1016172694 3.8123765255 4.7496980754 3.5496808537 3.550654635 -2.5812778048 
-1.8229845027 -2.2804663464 -2.2192076051 2.6288798531 0.92015669309 0.33893520087 0.85560369987 -0.80530499987 2.7187200358 
1.2359406878 1.8567204267 2.4724555372 2.982459671 2.1385340438 2.1022892049 6.5289624539 -7.7503843669 -7.4957119883 
-8.1341154096 5.216008282 -3.3368574481 1.9484542523 -0.79046070184 -3.6309582975 7.9277597418 7.5992163294 9.2449627266 
-0.67761190339 0.24713183484 0.20943959761 0.11462338032 1.6646748324 1.6107753162 1.151858479 0.69348688981 0.94966761155 
1.1111263751 0.97044323425 1.2968058901 1.0201406497 0.70485835561 0.68874185216 0.69126821857 1.9704659788 -1.648953741 
-0.22891849375 -1.9416473122 -6.1618828341 1.9499978987 -3.8249073496 2.8813189621 -3.9018650027 -3.2852188815 0.30349362052 
-3.8846373881 -2.0273603985 -4.5811372863 0.47722431233 -3.325068017 0.71340256478 -5.0000666585 -4.3896343269 -4.9481074927 
0.53604990277 -0.27040980576 -2.2689969434 -0.86968233922 -7.0630926186 1.0138946388 3.6146529022 0.51053111986 0.60347910153 
0.35139680508 0.40357019735 0.60184362215 -1.6570138255 -0.38856376858 0.11410216229 3.3747145136 -3.7540123192 -1.2771978974 
-1.9800993618 -1.7702659156 -5.0427604231 -4.2704356321 -0.52923673058 -1.1689213453 9.478079141 0.9406584244 -5.2533710674 
0.95570756315 -1.1914262644 1.2081337682 -0.59519516438 2.4251758827 -6.8163106452 2.7710287436 -1.227455391 -5.7064338285 
-1.0376249093 -0.98604763727 0.029858969895 0.75380216428 0.20476571314 4.3105180366 2.6765332463 2.8686469997 -8.6696806282 
7.7809584888 3.5883845895 -8.1137417763 -2.4283729237 3.0358334383 0.40516586943 2.1363934848 1.1159542709 -2.8781307206 
-8.8900563788 -7.8174585046 4.568593289 -5.224909254 -8.1192368708 6.0616409223 4.2678423651 0.17680331922 -1.5360665986 
-0.26285460464 -8.1251068374 -8.306449353 -8.8536538762 9.6073866975 -4.9856407436 -7.8953067401 5.5992426131 9.7637037562 
-1.5680258727 -7.5822807298 -6.0802731239 -6.4627062878 -1.6814242344 2.3471598384 1.4954560236 4.1675335248 4.3752723341 
-0.49696490909 3.5897030383 3.0988999173 -0.71723842886 1.6022019361 4.1844056681 -7.4714713433 -8.9076535518 -8.8341053512 
-9.2702201848 -8.5483336216 -6.8065513299 3.7420878252 3.4075731678 -0.28958390312 -1.5987570857 -8.747229783 -3.4786489403 
3.7556080902 5.6657845942 2.056963692 2.3690761619 5.0040354123 3.7232755392 3.150492573 2.1208286004 -1.0711767655 
2.6583407102 -3.8158570951 2.9512629289 -3.7671053289 -9.4854084618 -6.5620460872 -6.6568053496 -8.758437803 -8.9452788627 
-4.4873563798 -6.060064407 -6.152222243 -5.3418834304 4.5324345483 -9.7761443797 -2.9874242479 -7.0588847365 -8.6208455986 
-8.0304244991 -8.2666575617 -7.1608742956 -8.0674155354 -8.4487651432 -5.2104492507 -5.1532327259 -5.5080070708 -6.0814103849 
-9.3833967027 -1.7152546747 -3.0195713544 -1.1589670966 0.42181561372 -7.6608350285 -7.4590473989 -8.6888184554 -5.4775035865 
-5.1163436731 -5.3093731216 -6.4564412447 -6.7925478521 -6.264835073 -6.6524613195 -7.3004974444 -5.9936832259 -6.3163654127 
-6.0873872585 -5.7059249701 -9.5724173319 2.2776901122 -2.1404485944 -0.99563400937 -9.7027244793 -6.7227718721 3.2330717378 
-9.6101029088 -9.2684502941 -0.17797598609 3.2263295016 -6.5514039952 -9.2957556559 -8.2019829533 -8.4119060122 -9.7479811184 
-9.560891231 -9.0657373314 -7.6443413439 -8.9049245402 -9.3735718964 -8.174131027 -6.1527701635 -8.2683928095 -8.8707870117 
-6.1255869956 -6.2731580807 -6.5296007524 -6.7037111016 3.5194443182 -3.5050173497 -7.082868595 -6.8659879547 -8.6044645298 
-8.6837434313 -8.8804253188 -8.227369423 -7.2161876525 -8.2152949451 -7.1251786021 -8.863088977 -8.3834462799 -9.9647850271 
-9.2029744079 -9.2726613943 -9.6157108282 -9.6505105588 -9.7482008093 -9.6585217851 -8.0405016698 -8.993780721 -8.7962472383 
-8.1526117042 -8.9165775456 -8.9472817419 -8.9527364785 -8.7926449852 -7.974216672 -9.3943818242 -9.492981931 -8.6531911726 
-6.9515357614 -9.1167892684 -7.5565936432 -8.126104005 -7.1461391555 -6.3578055185 -6.8166367608 -7.6373793122 -9.4463149109 
-9.3142286244 -6.2494914248 -6.1478061337 2.0336785608 -8.7848949941 -6.324913928 -7.9625777419 -8.8459171126 -6.8619106456 
-8.5200586918 -6.1976454289 2.0275762415 -8.7877272059 -9.1909453454 -7.3617116919 -6.2932163882 -9.5113534731 -8.529909403 
-8.3897751122 -6.9895160519 -6.6059423296 -5.4363574209 -3.8278186655 -5.2500898516 -7.1611321034 -6.756383773 -5.0021680819 
-8.1460546083 -5.0129094598 -3.4924766065 1.8581553624 3.3675286388 -0.9607744982 -2.1090009005 -6.9897970572 -9.3009569182 
-9.2959615275 -7.6127654008 1.0770599054 -5.5974240507 6.2591213412 -7.9748469829 4.945111969 7.4222298459 7.2119212381 
-7.2495879092 4.6016782859 7.4362458595 -7.0194693948 -1.9012983591 3.3161779026 -5.7682654967 -1.8537860044 4.7052196534 
-0.38842202674 -3.1040906147 -2.576308316 4.9100147064 6.2561906071 -5.7358419127 -5.8104723727 4.0743830744 9.8247006611 
8.5381414096 -4.3150138995 -0.5202535691 -4.8529666212 -3.9787596867 -2.9071370903 0.40614042183 -7.8036491291 -6.5786942544 
-6.6091757331 -0.21756945551 -2.7672945967 -8.864916986 -4.2914073513 -6.5010973595 -9.0931744505 -7.8365950312 -3.6221680975 
-8.5092068439 -8.764013328 -8.3022826361 -8.7157060183 -7.8218219166 -8.5425479375 -8.7931191971 -8.5835260366 -7.8870517623 
-8.8503735372 -9.167253371 -8.1421803141 -9.9034596652 -9.5220676267 -9.8206416808 -9.864736911 -8.6752886853 -9.5034544447 
-7.9081798907 -8.4466718127 -9.4666540366 -7.5362543324 -9.3440174565 -9.433652348 -9.3001931829 -7.1644485683 -9.6692190744 
-7.0123673974 -2.6175039165 -6.6291458467 3.9785281806 -4.1708433403 -8.7118186472 1.2644931205 2.0470050013 2.0260690359 
-0.46696027331 -9.776865456 -8.1371526757 9.1260054549 -7.034514325 -5.6859460709 -7.7481846467 -7.2828094547 -7.1555899121 
-8.1993604475 -8.5828062962 -7.7526891806 -8.3893433988 -8.3563426802 -9.2400551739 -8.5369957091 -8.2198499601 -7.8109634992 
-6.6188749036 -8.2099365057 -3.106952685 3.0400127584 -9.1148178477 -2.322048321 0.077357615292 9.3812821395 3.9312126156 
-6.7707491816 7.2199708452 -9.2884955295 -6.3829922271 6.8053985765 7.9815422146 1.7667819045 -9.4098763544 -0.11293732815 
-6.2384659099 -8.079455691 -7.4303661303 -9.2153118058 0.081849285084 -0.99702776607 -0.76762389971 -0.83940076013 -9.0212958322 
-3.5004160527 -3.470060455 -5.4110206237 -5.2475782995 -5.0218197488 -3.0628637002 -5.8332145475 -0.36579672764 -7.3088967004 
-5.7066510539 -2.4792554762 -8.0908009202 -6.5053967726 -5.1120094788 -6.5036606667 -4.2145955333 -7.2276414792 -7.8865928188 
-8.5489993773 -5.2365573784 -6.8486125781 -9.0392858134 -6.976186235 -8.8918487861 -6.4344013748 9.481478136 8.9874625636 
-8.4055064149 -3.2872789826 -7.92692452 -9.0339185954 -5.5214200273 -8.5335187845 -8.7322287775 -6.5337528784 -0.86976545337 
-5.2576771572 -7.6630691578 -7.7897101369 -6.817179453 -4.744085865 -6.5020822312 -7.2162385383 -9.4338562335 -9.2334163947 
-9.5483302196 -9.8473038119 -9.5231823922 -7.9572929009 -9.8652471613 -9.6266966995 -5.8217068849 -2.0452002407 -9.4808504094 
-9.9909639394 3.5892204468 -9.8130742521 5.4005364803 -1.9237551238 -6.0582668427 9.4419636975 -4.546019762 8.0385043257 
-9.7996524381 -7.3428742534 5.1225837867 4.8347325072 -8.5354551209 -8.284165891 -8.3169368276 -8.3498692578 -8.6395215049 
5.3793601852 1.0520498779 7.0843315258 -9.5334498353 -8.970567113 -6.548137673 -8.9501674174 3.7972096304 -8.1911679976 
-8.6004223712 -4.231637074 -7.6141769312 -9.1645920011 0.3631712703 8.381051829 -9.4837295086 -9.3698671796 -9.4793735085 
-9.8050177863 -3.913843382 -7.4753879512 -4.862850555 -1.2036997207 -8.7090165251 0.009973239675 -9.5162449912 -8.9806828203 
-6.4889161178 6.988939157 6.0713106199 6.4620702822 -3.1545271954 -1.0096031793 -2.5505163814 -7.5077238258 -2.1233078074 
-2.9370348921 -0.85039550559 0.34994873317 -4.4089978906 -7.9239697613 -5.6300619948 -9.2169621135 6.2828075116 2.5354476079 
-1.6245529216 9.2367712336 -2.1764032274 -4.8150720381 -1.4993780033 1.8891444289 -3.3313659719 0.20705598725 3.6757642236 
1.4540483155 9.2033720444 9.4694719956 8.6343804815 9.4777374693 9.2734833311 -0.065793153937 9.5579836816 7.8981625421 
9.9728442157 9.9951636901 9.9904186292 9.986083038 7.1136268207 6.6274717883 6.8791531525 6.2378576699 9.8202232982 
7.9996242402 9.3598152574 9.3758444894 8.0420008332 9.9911145895 9.2039942381 9.9326920749 7.4650129392 8.8725789486 
7.4461024818 7.5080289585 6.606438519 7.2128518254 7.4416452849 8.7511218644 5.1080294612 4.3775146389 8.0241301884 
6.3281603125 5.3412964427 4.9372821243 6.4202486827 5.0693787947 6.5676550466 7.4742635206 5.6793278526 9.4035987198 
8.2305028724 8.0320916615 7.5673198795 7.314491538 7.5524611079 7.3961754917 7.6512799107 7.6430867355 8.2702331992 
8.110554744 6.9212159647 8.3892502747 3.7244417737 8.7861592905 8.8300778628 5.6579109726 9.0726047834 2.1548243789 
5.4673373114 9.017089839 8.6183089789 -2.8049569308 2.9166576814 5.7889074153 9.7003799649 8.5160382864 8.4424164834 
7.7385384147 9.6510952768 9.8499551921 8.1464134904 9.4248313908 9.4779244308 9.7280995177 9.8782861114 8.4101934982 
8.7874234248 9.5819275528 9.6911371742 9.5916057399 9.279391085 8.7906614671 9.5711669218 8.8533751021 9.2500252442 
8.6467567794 8.8854450733 8.6506663259 9.607572625 9.6761279035 9.8288322573 9.7194468073 8.7545785728 4.2377507237 
5.9581637393 8.0036376244 4.4671653991 5.884399629 4.4704068795 3.9508039611 7.0514087559 8.4550698262 7.8280706419 
7.9831794555 6.9513836351 7.3362926402 4.5241400643 4.6188264211 5.8005183784 8.2178045585 5.8016687825 8.0084766531 
8.5414454985 8.0665303098 6.4031194862 9.257881554 9.0866698119 8.1742068302 8.4143831992 4.9211888316 8.6127919326 
5.8329647868 9.2910343679 8.8627809962 7.3579227797 9.0045783928 9.8544139627 9.8852677528 9.4000941313 9.8723315453 
9.1306891109 9.811748943 7.5968545701 7.1981214678 8.8268971399 9.9677452067 8.7332315308 5.8031715264 9.8432807192 
8.6539067852 9.7563239553 8.7612341275 9.9297366889 9.851849636 9.4866772517 9.914488878 9.9405608574 9.978736811 
9.8526918054 9.997088013 9.3588514068 9.5487616094 9.4514262905 9.4017360315 9.647878426 9.0161943627 8.8041210526 
8.4997685644 8.7039285672 8.8988751012 8.1273815947 7.8815065578 8.8926343274 9.6695624652 9.6383761045 9.5812286404 
9.7056171712 9.9543091182 9.2919669115 9.699799418 9.6125003726 9.7997391696 9.7582150454 9.7844260466 6.4806484844 
9.6286333148 9.9324061144 9.3246938431 9.697511371 8.4000549115 9.5693086429 9.8944714196 9.7363788015 9.973411614 