# vtk DataFile Version 5.1
vtk output
ASCII
DATASET POLYDATA
POINTS 1244 float
-2.44143 -2.89568 -2.65664 -2.65729 -3.6195 13.3937 -3.87341 13.2239 -3.57869 
-3.00371 13.1081 13.2584 13.1631 -3.54526 -2.30994 11.9711 -3.95602 13.1508 
12.0172 11.1551 -2.42888 12.0405 14.1486 12.149 -3.24119 -3.08763 -1.15633 
-2.88095 -2.58836 0.66308 -2.51708 -2.49616 2.51346 -2.06475 -2.40202 4.19655 
-2.43514 -2.42429 5.92211 -2.22706 -2.28086 7.79451 -1.99975 -2.72583 9.47917 
-2.52756 -2.52121 10.9394 -2.58385 -3.39225 11.8076 -2.09967 -1.82933 -2.23053 
-1.70255 -0.746478 -1.82293 -1.71509 0.350238 -1.64774 -1.94219 2.07302 -1.65787 
-2.2872 3.92686 -2.25594 -2.07946 6.18122 -2.7632 -3.3497 7.86384 -3.43969 
-3.94874 9.78186 -3.00779 -4.28974 11.5272 -3.45457 -3.5748 14.1443 -2.03286 
-3.28666 14.605 0.0321723 -4.25616 12.9694 1.88554 -5.47378 10.8004 3.26094 
-6.57283 8.02954 4.59346 -6.03794 10.6513 6.58141 -4.7311 12.803 7.83414 
-3.59202 14.036 9.72059 -3.356 13.7655 11.776 -3.20195 -1.97512 12.7276 
-3.13682 -0.144148 11.9996 -2.5085 0.460997 11.4745 -2.33255 1.96047 10.9555 
-2.1804 4.05 11.0575 -2.02654 6.02263 11.2866 -2.31414 8.11812 11.6323 
-2.80572 9.54111 11.9113 -2.82912 11.4146 12.8997 13.6912 -3.96111 -0.648863 
13.6472 -4.33792 0.705613 11.2103 -4.92432 1.28139 8.76979 -5.12471 1.73188 
8.8352 -5.96625 3.47819 8.71502 -5.54638 5.69174 10.2058 -5.77245 7.68771 
11.2742 -4.73455 9.6129 12.4312 -4.81312 11.456 12.2739 -1.75774 -2.08969 
11.6607 -0.320497 -2.10505 10.9179 0.726262 -1.73231 11.055 2.32148 -2.24915 
11.0003 4.13129 -2.25448 11.1667 5.93236 -1.98061 11.1948 6.91857 -2.20236 
12.4808 9.14885 -2.88453 12.9856 10.5807 -4.41643 15.0144 12.1611 0.788652 
9.79388 9.9247 0.499578 6.8989 6.93436 0.885386 5.48078 5.50803 3.97897 
9.82016 3.4942 5.41399 5.79084 7.46067 4.24266 5.4603 5.9968 7.44974 
7.68565 10.0693 8.34161 13.362 14.6129 10.578 12.4794 -1.98065 12.3222 
12.0954 -0.0430845 11.4083 11.8003 1.28555 11.1029 12.0432 3.49238 10.9793 
11.119 5.56808 11.1143 10.4133 7.83172 10.7166 10.642 9.90543 10.7518 
11.3237 11.0906 10.826 11.5084 12.5375 11.2894 -1.32802 -3.26625 -3.786 
0.368624 -2.64239 -3.98716 1.9944 -2.12515 -3.04818 3.48163 -3.1536 -2.47441 
5.49137 -2.95823 -2.27421 7.41996 -2.32636 -1.7749 9.12608 -2.48856 -1.85701 
10.5886 -2.63773 -1.90037 11.4614 -2.8608 -1.90557 -1.04193 -3.73084 13.6813 
1.01423 -3.24132 14.3244 3.65828 -3.07885 13.0981 6.86602 -2.36811 13.3051 
5.04686 -6.49434 12.5629 3.65753 -6.26919 9.64064 6.16912 -5.62776 11.0739 
7.52106 -4.21338 14.0117 10.1453 -4.53681 14.1997 -2.17435 13.3487 -3.9528 
-0.695497 11.7166 -4.03875 1.46599 11.8997 -4.23938 3.17349 10.6044 -3.85059 
5.19315 10.4018 -4.23772 7.04953 11.3621 -4.17176 8.51519 12.9733 -4.17786 
10.4681 13.4275 -3.57621 12.266 14.2533 -3.35342 -0.753089 13.5334 13.1616 
1.96685 12.6027 13.6195 4.77107 11.4261 13.0062 4.8381 8.19848 14.1423 
5.58324 10.5308 14.685 5.43366 7.35204 14.1238 6.65751 9.08796 9.72248 
7.8043 14.5645 12.1185 9.67861 13.674 12.8856 -2.06026 -1.07787 4.76376 
-2.49542 -1.12023 1.01991 -1.54259 5.68708 -0.667773 1.24269 10.2722 3.79297 
-1.44446 8.64908 -0.333425 -0.523615 6.24283 7.97484 -1.16639 8.80994 9.81599 
0.385684 9.32628 3.57216 -2.03334 -1.01145 8.27463 -2.52805 2.66639 10.235 
-1.788 2.66581 -0.644801 1.1483 6.2609 6.47105 0.815946 3.12354 4.61462 
-0.246054 2.71768 5.50171 -2.43306 -0.933868 9.89984 -1.96987 -1.25424 6.58819 
-2.43838 -1.79645 3.222 -2.45721 -0.916053 -0.789043 -1.89411 4.68176 9.29146 
-1.94958 5.19363 10.7344 -2.04382 6.77352 10.3432 1.9128 5.59094 5.62882 
0.474654 8.21225 7.513 -0.756914 10.0914 8.97343 -1.03015 12.4206 7.62398 
-3.52205 6.81969 5.39155 -2.13611 4.53394 0.642428 -2.24899 5.22846 -2.23889 
0.955407 6.67227 3.18172 -0.64737 7.3319 0.436608 -0.286713 8.67127 1.19221 
-3.51309 10.7397 4.37221 -1.16809 12.6639 1.50736 -1.21322 10.6276 0.388836 
0.815221 5.20484 3.21115 -1.94921 4.93075 3.28511 -2.46146 4.13324 4.88456 
-0.370862 7.74968 3.28368 -2.57922 7.26779 3.25432 -1.20281 3.58249 2.22384 
-1.06892 2.46358 1.3637 -1.63645 1.00961 0.568277 -1.31369 1.03988 1.9715 
-1.60583 1.1471 3.78252 -1.59224 4.58327 7.58881 -1.50188 2.55253 7.81202 
-1.02108 0.964475 6.10959 -1.58379 0.873458 7.49488 -2.16104 1.13702 9.11398 
1.34179 2.58125 3.69153 -1.63499 4.84157 4.96488 -1.05195 4.04401 7.13101 
-2.23956 -0.774621 8.98824 -2.04025 -1.04491 7.36287 -2.18072 -1.42491 5.67362 
-2.25539 -1.55574 4.2754 -2.83241 -2.0972 1.82129 -2.31706 -0.655057 0.175117 
-1.83636 3.73747 9.9073 -2.09978 3.99839 10.4992 -1.78752 5.05342 9.94263 
-1.42341 5.4861 8.01203 -1.2746 5.74425 8.93079 -0.817338 6.4038 8.69213 
0.477428 7.03802 7.20496 -0.913088 6.73704 9.79569 -1.0026 7.98023 9.53519 
-0.228529 8.09786 8.61073 -0.473904 8.60491 8.75218 0.825447 7.04789 7.13095 
2.41344 7.59821 3.81821 1.42362 8.74867 5.95815 -0.928529 9.12555 9.50599 
-1.4382 10.3755 10.0506 0.185832 11.2006 5.59866 -2.59826 10.0736 7.27359 
-3.56114 12.3057 5.95743 -0.516427 10.9165 8.67739 0.281288 9.89857 7.37684 
-0.055182 9.02652 8.18101 -2.208 7.04762 10.9915 -2.03846 5.64534 10.1456 
-2.0063 3.87014 -0.321259 -2.10199 4.10079 -0.857479 -2.21331 5.10008 1.64142 
-2.02651 4.82864 -0.214133 -1.94485 5.64903 -1.30106 0.252719 6.21656 1.6878 
-0.628396 6.84072 0.406215 0.158854 7.09766 1.7847 1.16523 7.99422 3.2299 
0.344011 7.87413 1.87007 0.569164 8.94069 2.41697 -0.32462 7.93513 0.765013 
-1.18506 7.64969 -0.38339 -0.997271 8.38127 0.170323 0.150933 10.6616 4.74398 
-0.174425 11.3534 2.86776 -0.906233 11.7639 3.39993 -1.15926 9.38704 0.108303 
-1.56377 10.4422 -0.2211 -0.474009 10.0579 1.22814 -0.669195 9.41402 0.800748 
0.0553545 9.51647 1.97919 -1.50059 7.2225 -1.25545 -1.63315 6.57963 -1.53321 
-2.5096 7.11522 4.3715 -0.713381 8.92354 3.24757 1.49816 7.64873 5.89948 
-0.543271 5.34719 5.41056 -2.99997 6.81022 4.03491 0.248536 8.01854 6.17736 
1.33849 5.72398 5.20043 0.424188 5.41992 3.53753 -1.76717 5.97032 0.429684 
-0.309938 3.14389 6.50187 0.48917 7.99115 4.20897 1.80608 5.61663 4.08389 
0.0244953 4.76002 5.68257 2.86153 7.60907 6.12563 -2.26473 4.45914 4.62483 
1.97223 5.79846 4.79993 -1.88207 6.89059 0.826412 -0.0617047 7.95702 3.90328 
-0.811112 5.96772 7.20957 -2.56935 8.5527 5.8369 1.0313 7.80462 6.67649 
0.205692 4.28759 6.35705 -2.24447 5.27743 2.44097 -1.44556 3.69034 1.16415 
-1.54985 3.05094 0.53052 -1.5213 2.60689 0.241829 -0.814669 3.00807 1.93083 
-0.175249 3.77596 3.44497 -0.150978 2.71111 2.98195 -1.66459 2.04049 -0.626649 
-1.84219 1.06816 -0.564174 -2.08671 0.413493 -0.277679 -2.00378 0.0972506 0.928439 
-0.653967 0.941319 2.91952 -1.47403 1.72402 3.0198 -2.19866 -0.90255 2.4831 
-1.97505 0.00889627 1.57912 -2.64868 -1.24499 2.3676 -2.25667 -0.48162 3.85572 
-1.73428 0.153986 4.32337 -1.38679 1.26193 1.27538 -0.711655 1.97543 2.05921 
-1.41848 1.85079 0.541007 -1.53587 5.32774 7.14576 -1.566 4.34076 8.56574 
-1.31766 3.56993 7.46147 -1.62155 3.44224 8.04006 -0.808839 2.6703 6.61676 
-1.89736 3.50328 8.92987 -1.91475 2.755 9.01484 -0.451883 1.80467 5.98724 
-1.13849 1.98335 6.77012 -1.30899 0.891517 6.74196 -1.67454 -0.438724 5.59261 
-1.72807 -0.196641 6.34713 -1.71546 -0.134593 7.10277 -1.94201 -0.0459042 7.9718 
-2.21054 2.11441 9.57881 -2.37957 1.04576 9.84969 -2.21509 0.272282 8.67673 
-2.40476 0.141087 9.82953 -1.89759 1.09192 8.13842 -1.83876 1.86484 8.64964 
-1.3711 1.82641 7.74887 -1.38031 0.336474 5.47182 -0.170457 1.56788 5.25358 
0.656111 2.70648 4.67381 -1.0617 1.23052 4.63363 0.880984 4.92609 2.21254 
-0.952057 3.81402 6.53159 -1.71743 4.59016 6.8737 -1.82774 5.70742 5.82796 
-1.94032 5.37883 5.05377 -1.73952 5.33418 0.747489 0.66747 5.04365 5.58194 
-0.969319 5.75429 4.30038 1.56331 3.64414 6.23209 -2.06911 5.63092 6.33627 
-2.74604 5.9733 3.72455 -0.852277 3.68139 0.206876 0.830987 2.65015 1.35008 
-0.913909 3.42147 5.71355 8.14327 -1.98389 4.73986 10.5895 -0.985512 1.52497 
9.58095 6.04576 1.01285 11.534 10.0805 3.74731 10.0225 8.47452 -0.634859 
8.77315 5.73071 8.06877 10.5458 9.19357 9.511 10.8944 11.7716 6.00638 
9.212 -0.721728 7.48501 12.1462 2.10654 10.5473 10.3789 2.89328 -0.709207 
8.06149 7.3801 3.19863 9.2227 3.07513 3.25678 8.56808 4.16641 6.96713 
10.9367 -1.48871 10.133 8.36174 -1.71291 6.43649 8.3995 -2.19586 2.65129 
10.8767 -0.436284 0.0430348 10.4571 4.60602 10.0923 10.5233 6.42359 10.3849 
9.44991 7.09825 8.83771 7.49744 7.89044 5.40918 10.4536 8.97423 7.10778 
11.1952 10.2065 8.57303 9.98092 9.9816 8.93755 10.8392 10.4691 7.47475 
10.0428 4.3701 0.0620194 10.5715 5.42478 -1.19198 8.71703 6.92269 2.59721 
9.21936 7.48453 0.568594 8.68189 8.95366 1.17344 6.45505 9.8454 2.70153 
7.32002 9.89928 2.18924 10.3939 11.1796 0.917759 10.1592 6.6602 2.50678 
7.72422 9.22568 5.7696 10.034 5.16489 4.35812 12.4821 6.23178 7.52651 
9.38725 4.76058 5.20859 9.4755 3.97879 1.73496 9.7614 2.51572 0.910119 
10.2536 1.08379 0.181517 9.11242 0.830012 2.04434 8.3712 0.448798 3.54281 
8.51842 2.64157 6.69628 11.3797 1.87435 8.55086 7.99236 0.994803 5.88667 
8.69615 1.38556 7.08941 11.1001 0.00633137 9.57765 9.13438 1.91239 4.26625 
8.58732 5.57503 6.39969 8.85031 5.01129 4.88992 9.95327 -0.674546 8.28903 
8.83678 -0.885455 6.97145 8.27074 -1.68501 5.82 8.19517 -1.44264 3.88679 
9.5707 -0.332908 2.03853 10.6222 -0.413802 0.884935 11.893 3.23034 9.69568 
11.496 4.60687 10.3404 10.407 5.6182 10.0538 9.33407 5.0663 8.93388 
9.4346 6.03062 9.08519 8.87372 6.61051 8.16075 8.25907 6.81398 6.76843 
8.55514 7.40897 7.2584 10.2345 8.02587 9.68034 9.86941 7.83118 8.82523 
10.2179 8.47247 8.72818 9.6303 7.84079 7.80465 7.22059 9.24344 3.31621 
9.86798 9.76049 2.53084 10.5172 9.28636 8.89296 11.1591 10.4834 9.2281 
11.2639 6.9263 8.21377 6.11707 8.53651 7.06952 8.50413 4.22683 6.60957 
12.6395 13.7651 7.12022 11.8097 11.5644 4.55928 10.8173 9.53561 7.86971 
10.3264 7.37613 9.7617 9.83865 6.59405 9.72391 10.2571 3.80036 -0.515659 
10.5074 4.0987 -1.10541 9.84449 5.08243 0.375619 10.2553 4.9042 -0.754967 
[...]
CELL_DATA 2484
SCALARS scalars double
LOOKUP_TABLE default
2.5287672375 0.28548472833 -1.2754865983 -1.157003294 3.0477265366 -1.025750366 4.948518473 3.89484775 2.6589702479 
-3.6307046103 3.19348748 -2.3376239166 -1.6094459356 -2.0484006006 -3.7462220096 2.2205677576 3.3214258738 3.7031950557 
4.3341256376 3.5579864819 2.7014888655 -1.9644337566 2.376912698 -0.52247405648 2.6604236327 -2.5125311902 5.3744927747 
0.12098824386 4.0384162639 3.2159294395 7.5853718298 5.6997876548 2.8192812916 0.79067543686 1.3252940748 2.0252679813 
5.244259537 9.4844536889 2.9865676719 7.0535490745 2.5032477035 0.20480621874 -2.3910541777 -1.7960140719 -1.87930832 
-0.76153096348 -7.5099681119 0.21572285651 -0.7365832404 -0.54799720094 -4.8268176451 -0.60303884311 1.0247262111 -1.2740571589 
3.3454996836 -2.1024848539 -4.8873054025 -2.3875806117 0.0030182295413 -5.6830830741 -8.8841285602 -0.5983793453 5.6832784331 
-8.2107777925 -0.95653279951 -6.4373812689 -9.751552492 -7.0031255865 -4.2443092073 -0.20959767632 -5.5092192751 -3.9886943504 
-1.3884097383 -4.6470142073 -1.4820919971 -0.24476630717 0.79593003391 0.75502147763 -1.3847863507 -0.13423633281 -4.3717901166 
-0.91808877211 0.59286220042 4.3770414333 -3.689875293 1.0268760683 4.0795992507 -6.7793001452 3.8203468353 1.0831017638 
-1.2677471355 -1.5663069612 0.41218657573 -1.4946457605 0.4154643246 -1.2618369904 -2.6908671241 -1.3508413 -1.2561864863 
0.55234318777 9.3680257504 3.107753775 -0.28212272762 0.31708209745 -0.14862530656 0.27648595394 1.6360835473 -2.4438561447 
0.84042276255 -1.4375433133 -0.64454738702 -1.4642901117 1.1721802663 -0.97566594524 -1.3251407767 -0.87680420722 1.1888766469 
-3.1054061124 -2.3254216194 -2.8041207917 -2.4268670321 1.5972779226 1.4293659547 1.4408323933 -8.3982397925 -7.5234643247 
-7.4339547022 -7.9053658073 -5.2205545076 -9.0161529434 -5.8760243331 -8.9301951895 -1.5558072806 -0.79193765841 2.2262510463 
-1.0434796137 -0.95010580979 -1.882774002 -3.0700805892 -4.6942602795 -2.5779503722 -1.6469999224 -6.9922265228 -0.84313545243 
-1.0366025369 -0.94977243705 -2.8849666631 -2.3837521436 -3.3174632968 -3.3905473098 -1.5259040639 -2.7545541073 -1.5346472662 
-0.94064108562 -2.8422772536 -4.1093155251 -3.5931059475 0.54255663979 -0.62917089481 3.4660425821 1.7794760443 3.7807019866 
2.9631874406 -0.10712409617 -3.5809577615 0.35891428413 -2.271178453 -8.5776589114 6.2299035353 -5.0076186357 -0.15891597297 
-5.0753452202 3.3245479757 1.2339846462 -4.3985950443 8.869818206 -6.249226006 5.0610535445 -3.2936089919 -7.370432174 
-1.2065909798 -5.179452108 1.0547410152 1.4296764572 5.009996029 -3.1214180379 4.3985944322 9.6936387927 9.085585339 
8.4773940802 3.9246763353 -7.5087892723 -4.7750293501 2.7379436259 8.0005355498 -6.2299974478 4.495959547 6.149474148 
3.9366277974 -4.6554289994 -3.8345151215 6.8850933909 4.5872608331 7.0763047643 9.4475480115 -8.2107678606 6.666080275 
8.3796889548 7.6867002085 7.3350028286 -1.3038547798 0.84053545751 -2.1435149103 2.5581248013 -5.3923949618 -1.4470021459 
-5.0477342166 2.2785824405 1.7914760156 4.2416033945 -7.7798175441 1.0079514051 0.37241753474 -3.4834463114 6.0876719394 
0.44195909827 2.3706516632 4.4836664484 -9.6784197159 0.33439438115 4.6276177699 -5.2494234748 -5.3134592624 -4.9672779547 
-3.7303662593 -2.4044008744 -2.7246351122 -2.3683041546 -6.4163618819 -1.2591761465 -2.528970663 -2.2543243169 -0.68460603658 
-5.9734969106 -3.5258812822 -2.9457939942 0.0028542002225 1.8807677971 -1.6484306054 1.5025836775 4.2577723963 2.4061045051 
3.7512317737 2.6300690439 4.1339014343 4.6100376239 4.3954813584 3.9601494192 2.3443845044 4.6269578209 2.6013284007 
1.8489361054 5.1386163183 3.8377966068 0.39420359344 3.4402405537 3.4936379033 0.60341518777 2.8756191062 2.2372865859 
0.14462724743 3.610874465 4.3052212914 7.9863237828 3.7879355468 4.5929479169 4.2333108917 4.4251317717 4.1561486526 
2.2897616864 0.54654173906 2.4410863747 2.5083698537 0.22992463729 -1.786716688 -0.55008624393 -0.55430847701 2.5074110278 
5.0757723765 4.0241699143 7.6299323758 1.0682944938 -0.70598273073 1.6876933592 -1.7077449775 -0.78346994436 0.11911924422 
-0.52751071678 -0.17642831911 -0.14620357261 4.1496052708 0.29460812736 -0.53510544546 1.4454854805 0.40201372582 2.3407371245 
-1.6329244414 5.0195462656 1.5378666546 1.3132535018 4.7591352527 4.5962873133 2.5654486672 4.341023118 2.2631011763 
2.8961001959 0.95420642981 2.5483657355 2.2244432021 2.4638377187 4.4101537747 3.6388062239 4.7652701605 0.81986228444 
-1.2227631201 0.76363830468 1.3501821916 -0.54935453363 0.12326081092 -0.26106641494 0.084622263387 0.32958755154 -0.22057955983 
-4.2592812976 0.32402694176 1.926218105 1.0227609925 0.93666892536 1.448281516 0.18351389238 0.56077425606 0.8125141779 
2.6046441357 -1.0994516492 3.1598015905 4.0016320084 -1.196349918 3.1345080999 2.4517121267 3.5539832544 3.1422218195 
3.7122807469 2.5562791608 3.7582204807 4.5758915271 -2.3176004992 2.6905601123 3.7343375702 6.405865167 5.3726652245 
-6.022465346 6.0948530192 8.8584383805 6.0801099112 6.5694749828 6.5683019889 -1.9689345658 -2.7707754492 -6.6980041768 
-5.3242845326 2.3367364487 7.5035429457 4.2714544931 6.8978952345 -4.8933024801 -4.6282289895 1.0409377127 -0.88827016535 
-1.3795499695 -4.7893061603 0.64600443499 0.26508369483 -3.1625970658 -8.5586786949 -5.0763077108 -5.0551729877 5.8679353843 
-1.3190448767 6.9643467878 6.5973919634 -5.1794206014 3.1134965171 0.52893099017 -1.6367613343 -0.092157171182 -6.4022282257 
-6.2805241164 -9.9039397867 1.7994517509 -9.8970604516 -4.6450058626 5.2669859467 6.1444023277 0.46078187077 0.58572843356 
0.46448791448 -3.8700199126 -7.9024358484 2.51046142 -8.9653515399 -9.477998905 -4.6582519781 8.4354407102 -8.6551966965 
1.5553058258 4.2077241383 -0.75145077926 2.5768984765 0.85608055133 0.82902032903 1.850900509 1.1776066094 1.1317754451 
1.5237068748 1.2631430057 0.91223756342 -2.7101543013 0.12499819677 -0.71688786602 6.3301887665 5.8165073132 6.3195365954 
3.8908041769 4.633306877 3.6932005417 1.3744958261 2.2200241193 -0.98069093237 -0.73091088243 4.6306133271 1.1637664893 
3.4904467815 0.091980630712 1.6674934048 -0.018792283916 0.35596730141 -0.25520123161 4.0939777936 1.0682923036 6.0542650875 
-0.61078882865 -2.5416444802 -0.18956924021 -1.0812076192 -4.844184453 -2.744625999 -4.7979411899 -4.912652201 -6.6633429625 
-6.5473847707 8.6280568775 -9.3763634591 -6.4802280459 -6.9950979043 -4.3461460679 -9.0291072561 -2.3607657866 -5.1199100091 
0.91300263977 -5.1757374864 -5.3037623558 -5.1978664562 -4.3617967062 4.0872573847 3.1417737977 1.2469503224 -2.5672610355 
0.72876245261 1.0490266426 7.4272591764 3.8202393177 7.9168857606 -2.5328122437 -4.0601224319 -5.3202124792 -0.44488383293 
-6.0305132459 4.1663950146 -5.6699186908 -5.1113872611 -3.2707522638 -3.7105519418 -4.9844149641 -4.08366797 5.1193826132 
-3.8987409091 -2.7605476473 0.15764138019 -3.6312388792 -2.6227496208 -0.40248146945 2.4904640852 -0.14582400904 1.8128082238 
2.1430862296 -5.2703468551 -4.2094261869 -1.0889952685 0.11866000779 0.46292584756 -0.33178584812 0.28901727192 0.2413945584 
1.1950003256 0.68678983838 -1.2936851458 0.88411863888 -1.5738632803 1.1389441768 -1.1491739725 1.448252421 0.40622699897 
3.3222045814 3.9171993782 3.0196709697 3.4932493673 -1.4968787855 -6.3133206874 -5.3160888038 -6.8374439788 3.8611292134 
0.28612000064 2.0232827605 3.8853127183 0.29118158577 3.9312421775 -1.7921865715 2.8483829121 -1.5186324871 2.0444656815 
2.8946593559 4.7046225692 3.1247487609 -2.510189974 9.0210858744 -2.5664375923 -9.4336131447 6.6454536959 7.2766805717 
-9.9743337687 -7.9169900369 -6.5954460059 -6.0341714775 6.5049269425 6.1314682729 -9.3203322654 4.0484890987 5.6248150163 
3.7002350282 5.4963727472 9.0998978423 -6.8239315446 -5.922474376 -6.3009999778 -6.4039433916 -7.4830255022 -7.5496705848 
9.845231289 4.3982604453 1.548282734 -3.6171112882 1.6579199256 3.3239249248 0.2552481311 3.322341745 0.53426851606 
-1.3023600066 1.9948301302 0.96300028721 5.6315379559 -0.1824438501 0.72054852251 8.9782452353 1.9343090194 1.6530034132 
-0.52935811972 -7.1453678381 8.8437883437 -7.3990124435 -6.766057734 1.9091556498 -1.8215443374 7.4370983619 5.6394987259 
-9.3833892628 -4.8055156126 -3.4211342073 -8.684180989 -1.8947290423 -4.5527462419 7.0018468414 4.5841033828 5.1657604053 
3.7753361154 1.1962502988 6.4698608576 -7.2037591837 -1.2643825819 5.9028512582 2.8178417478 7.4903786892 9.0919465078 
-4.6195609068 7.0373769181 -0.46820327195 -1.8259073672 -1.960574173 6.2216781431 9.1977142595 -6.9364046209 0.99003331781 
6.2102501921 0.28123168765 -0.063688682194 6.615232508 1.8653191173 -6.1009567265 5.4715700719 7.0197322034 8.6885224276 
-0.73917724251 5.1018863898 -3.0278432673 1.7041126194 6.7137047336 0.30081588556 -9.9265059011 6.7694701697 -8.0419622895 
-7.9444298595 -4.0051971036 -5.7174573633 -7.2865731137 2.044025237 1.7593747134 1.0448022099 -0.55459284231 -0.28935163956 
0.0027930945811 0.52327622771 0.40099789765 0.64978907089 0.31077156383 -1.2918754354 3.2244739902 -0.24822486679 0.16470393572 
0.33464612251 -0.17277968433 0.090259027493 4.6035432833 2.4781651392 1.4940630686 3.7839285184 3.6607544294 2.5647803385 
4.7198839875 4.6015719659 3.7870711236 3.9119606351 -1.3483327708 2.4277582631 2.5199772114 1.3489560626 -2.167224316 
-1.0871277426 1.7095336104 3.4897002167 -1.7916111213 3.5219955985 -0.79473580487 -0.66258568718 1.7736780791 0.61610174063 
-1.9842958833 -1.3585964189 -1.5864914011 -1.816586635 4.7441627144 2.9173380961 3.1998746336 3.044122721 -0.29481866702 
-3.3130718886 1.5727767295 -1.816665137 1.2619012523 0.87658611883 1.6927099132 0.84569124518 1.316179577 1.34752007 
-1.8992607567 -1.189636102 1.5758669154 0.91524542873 0.88257456446 0.94955036421 6.6164943993 -7.7761099226 -7.4480229105 
-8.1103388356 7.0674291383 -3.8492091485 2.3185868569 1.9372930684 -3.801438757 8.7602833037 8.3407275313 9.4790803324 
-1.0468626057 0.98394561399 1.2218378304 0.47360715113 0.56149181088 2.7174222733 0.49931162513 1.3644319765 0.31457097599 
-0.096447629473 1.9949906176 1.2114328736 -0.23016479259 1.558817852 1.1020819144 1.5707231116 3.0089282009 -2.9591793871 
2.0191324879 -2.1435691513 -3.4613214538 1.1000755676 -2.968656387 1.6320980459 -2.9355932143 -2.8397972059 1.6106167579 
-4.2311620534 -2.7043269394 -1.9225860098 -1.0791703901 -2.8612786298 -3.719995243 -1.507684195 -2.8610499796 -2.9339318314 
1.3314389806 0.17665002631 -2.469715009 -0.59146807226 -3.9219689558 1.3933605572 -6.4428959732 1.7764179629 1.492923893 
-0.9539729171 -2.6220992567 -2.1976981694 -0.20714954745 -0.74392532094 -0.32886835851 3.9295499069 -3.4566858611 0.3371642129 
-1.5700635411 0.86151146691 -4.5154327516 -7.9939689428 0.18352309821 -0.82888364533 9.5418083713 1.0683590369 -4.7691169609 
0.5789778272 -2.2591417937 1.3019735508 -0.17888197628 2.9029906473 -6.9253794791 2.870332791 0.4078660288 -5.3072762578 
-0.095432004615 -0.64162995532 -0.37993632003 0.28760009383 3.4176905564 -0.82845777646 -3.2159899516 -3.1912308547 -8.9145857526 
7.5929956337 1.9897115786 -7.9890469591 -0.38701185793 0.7359224583 1.4121095089 -4.7356025832 4.9462638141 -0.3101173995 
-7.3697406432 -5.5072970434 5.5112777739 -5.1356869659 -7.8253293707 5.3458786432 3.2658120372 1.4610037292 -0.072542106543 
0.95148928789 -7.4571022307 -8.4015645028 -8.8720078462 9.5004912545 -3.8680289715 -7.425054179 5.0381072596 9.4543873252 
-1.7753009915 -6.6594754554 -5.6126464442 -6.4246014512 -1.7384184091 2.1122952554 1.4328914099 4.3423444812 4.6011356264 
-0.31499433081 3.3369358955 3.2687100036 -1.2190166501 1.8051278307 4.4586961154 -7.1877097645 -8.7537426611 -8.9225168522 
-9.2909252573 -8.6625506707 -6.600762197 3.3490891088 3.478084499 -1.3064817663 -1.3740676798 -8.9124283515 -3.351820633 
3.7435982959 5.736017816 1.9566872723 2.6788083513 4.8875560374 3.8325786019 3.1243883931 2.0289042793 -1.2726613869 
2.6360008792 -3.6049831442 2.580082667 -3.4853316574 -6.5541261704 -5.5618193962 -7.3249898374 -5.6280285429 -8.6705970438 
-4.1911575703 -5.9246463811 -5.9292568457 -5.7508701135 4.5248168749 -8.8888869326 -3.8579154657 -7.6181375076 -7.6096165113 
-8.0192266788 -7.6004701865 -8.0363004737 -8.404441688 -8.5931151447 -5.0861328932 -5.9553130166 -5.8125554406 -5.9222767897 
1.3185472922 -6.1288137992 -9.669626853 -4.4678560485 -4.1138311731 -6.6958586339 -7.3486303885 -9.7542649608 -5.6818525941 
-4.6479861081 -5.0443407973 -8.5206876654 -5.9941997973 -6.5878206042 -5.9159200442 -5.6959558835 -7.8313480845 -7.0781748755 
-7.4513720806 -6.0074408159 -9.6301356204 2.9221628259 -2.3247261487 -0.94387978416 -9.7958291497 -6.116600085 3.627513958 
-9.6461538298 -9.3534162281 -0.45026059184 4.0673677713 -6.656431771 -9.2731809672 -9.1675198419 -8.6134830956 -9.9206831414 
-8.202610415 -9.0460377735 -8.3226341002 -8.2009265854 -8.6998405317 -8.6017305996 -9.4242826023 -9.1896849712 -8.9410316627 
-6.777559138 -6.5142361552 -6.9326784996 -6.6172546594 2.3924773847 -3.9425588484 -6.1988048028 -5.8556516597 -8.3987794118 
-7.8610491042 -8.696152434 -9.0621594635 -6.5954767147 -7.2123496998 -7.3478150299 -7.5655770994 -7.8742597851 -9.954690733 
-9.3297591924 -9.3554075551 -9.37868613 -8.5612761412 -9.5939357955 -9.5505309248 -8.8340893329 -9.018686888 -8.6986194892 
-8.5716383035 -9.0319580097 -8.9397052842 -8.9504499443 -9.0533261565 -8.4393464991 -8.4539286615 -7.938928436 -9.0010316102 
-5.8074541437 -9.2796981862 -7.789830019 -6.5504584849 -8.3972342061 -8.3894004667 -5.7774883039 -7.6959094569 -8.5647296903 
-8.747495414 -5.2683101476 -5.6984352834 1.2812610789 -8.6352535074 -6.7817535127 -8.3811265119 -8.9269544904 -7.075506502 
-8.6085949778 -6.701449661 1.3480221829 -8.6917677184 -8.2226279305 -5.9664851816 -8.8626203874 -9.4669934779 -9.7483751922 
-7.8751018573 -4.2947935695 -8.7632581209 -5.5618971059 -4.8066427203 -5.0682411379 -5.4603017945 -4.1531288105 -5.7816257447 
-9.7274654949 -5.4166359173 -2.559906615 2.7158754021 2.7025019209 -0.42037953041 -3.4569313751 -7.6489727712 -8.7732403109 
-8.5594843211 -7.7879306404 0.83854026581 -5.553285496 6.6864029507 -8.3793699109 4.1604540483 7.7850907962 7.6312490105 
-7.2424519383 4.833660607 7.3981446378 -7.4508505475 -0.78005984795 3.2593523187 -5.8877707347 -1.9868414662 4.3306200312 
-0.42574501134 -2.8673469822 -2.4669298798 5.1453660448 6.21133608 -5.7926736526 -5.6946786063 3.9543242969 9.8864473762 
8.2711253905 -3.8066282994 -1.3111048078 -4.5067858873 -4.6192249059 -2.9160204317 -0.41995291699 -8.5899150541 -7.4586045393 
-7.4464851617 0.41269224337 -3.643553448 -8.6437533201 -2.9190514561 -8.9191400735 -8.6128195851 -8.5064011184 -8.9087886276 
-9.1804327023 -8.9991447795 -8.40848312 -9.0077549348 -8.6492328432 -8.6206744748 -8.5668094751 -8.5705579143 -6.9168375155 
-8.4665559801 -8.0551218469 -6.7698600934 -9.4154603955 -8.1400741159 -9.8034574736 -8.355349938 -9.0477334224 -8.4400518578 
-7.9652175869 -8.5943343823 -8.0505010115 -9.2648728891 -8.7467022613 -8.9345755459 -8.8385206069 -5.2551123562 -8.6474147742 
-5.0228057059 -2.8029172274 -5.8245965622 3.1877889223 -3.0554842449 -7.5652842669 1.8963846748 1.1961038965 1.1987099607 
-1.041029762 -9.4218690839 -7.9526161485 8.4741938127 -6.9550713816 -6.3754273031 -8.0711040898 -7.4363245021 -8.7460138489 
-8.4000875018 -7.7459451078 -8.4096144785 -7.9715143576 -8.7013155745 -9.5404664435 -7.9874871913 -7.6901093956 -8.0608403101 
-7.278511696 -8.2528112915 -3.2798056637 3.2459048073 -9.2277806783 -2.2680617841 -0.61134305201 9.4381039883 3.949490681 
-6.8891894345 7.2685028169 -9.1028552668 -6.4283703394 6.8760358897 7.7015966624 1.5339453194 -9.4347695797 0.19337071039 
-6.7656173653 -9.9896193146 -2.6311353328 -9.972514145 -8.7015207006 -0.3569391785 -1.6389694834 -1.9864769921 -8.2355581262 
-4.230309083 -3.7223977677 -5.5259845248 -4.0864828205 -9.1442256288 -8.0022286034 -9.0805678237 0.068377694437 -7.0067613986 
-5.7438710741 -3.4213152361 -5.1044979822 -5.7947871639 -6.0773192576 -6.6639918725 -5.7577061254 -6.1297908664 -7.4779860888 
-8.3149259704 -4.330473846 -8.2624394074 -8.24191882 -8.0960621487 -8.6769966681 -6.7353617733 9.3768234315 8.6488917107 
-5.3030150051 -3.0415709474 -8.3009074858 -8.9887005758 -5.6507037156 -8.939386912 -9.3581779375 -6.7024046518 -0.54316957277 
-8.3784505287 -8.4237361712 -8.3130979292 -8.5204394286 -4.6114311813 -7.2582950937 -7.9952637404 -9.8156223804 -7.8823628832 
-8.7490148805 -9.7923195461 -6.6401155833 -9.1712040058 -8.6167008509 -7.6670977559 -3.3405476235 -3.1193789741 -9.6694139549 
-9.9441441826 3.7704498216 -9.7764847427 5.3784629976 -1.6538415857 -5.8801734574 9.51102382 -4.7608164665 8.0146760724 
-9.7962612111 -7.6802002749 4.9578891267 4.521088378 -8.4076700823 -7.569466154 -8.5882525001 -5.5678742928 -8.5645362651 
5.376402325 0.77526855561 7.442870533 -6.3071028196 -8.5755023517 -8.3798331748 -8.6482472214 2.9675714465 -7.1819972054 
-8.2142455996 -4.3882143105 -7.811516106 -9.2616910584 0.34235359978 8.4595634421 -9.3021619267 -8.4396972397 -9.4022292371 
-9.3097036168 -4.3565487759 -7.8128994008 -4.8248172284 -2.0123719211 -8.173854877 0.36134850815 -9.7746615497 -7.4430503018 
-6.6232456795 6.9944573988 6.0473820574 6.1986208129 -3.1957751927 -0.97193250273 -3.0406955796 -7.7534913526 -1.8809040147 
-2.9566566628 -0.95796523949 0.84149922956 -4.1075872375 -7.8403718038 -5.2110659851 -9.1450481249 6.595323519 2.8629421519 
-1.7272891938 9.1518266854 -2.1427152896 -4.5068890164 -1.5115637016 1.776238404 -3.3662652962 1.6849038059 3.639168187 
3.4366065915 7.5894780509 8.5783735652 9.1858058959 8.5204453397 5.7086861182 -0.59016876508 8.6454446302 8.0302024891 
9.2905574782 9.998811974 9.3982875599 9.6744832941 6.8677917386 6.8167501527 6.3915155641 5.7377940701 9.2003103485 
9.6335973735 9.4670739579 9.5033125065 9.5605257287 9.2277109645 9.6171723265 9.7033367413 7.2448724052 8.7739484767 
7.2393106034 7.3528567789 6.2746071891 7.2231480157 7.2921448544 8.6830920825 7.4396582865 5.5009660481 8.5129233647 
6.3231870308 6.0079709939 4.908685702 6.7460313984 5.1366809881 8.0957314855 7.4316022233 5.8300399424 9.0908663114 
7.7838652747 7.7577753688 7.4319239583 6.7258863049 7.2709688703 7.1188184665 7.2259881068 7.4822221149 8.1969224849 
8.1434723594 7.0668267269 8.2080324028 3.7192390689 8.9857359919 9.4523252596 7.2696009121 9.5751876255 2.3524270353 
7.011068551 8.9384653409 8.6666606298 -2.5659887478 2.9436278785 6.2971597823 8.9496896497 8.5319152163 8.6120446437 
8.545509055 9.6560517336 9.726530821 8.5352231339 9.39680087 9.7588993589 9.6044572556 9.1520905208 8.3635360498 
8.7378378365 9.8559510257 8.4924670732 9.296784285 9.2775026606 8.7291806822 9.561186484 9.1464165769 9.2556722723 
8.9758585793 8.3012800551 8.9793266942 9.7143511142 9.6966985353 9.7988974147 9.7229026811 5.858755892 4.5804449017 
5.749494476 5.3826766012 4.0728635274 5.5778492898 4.6056152609 5.2474897345 9.3331351369 8.1880187052 7.7673633434 
8.1772497359 7.5346318417 6.7113422789 4.501784572 4.1050543329 5.7110557099 6.6599735576 5.7115824663 7.2863569815 
8.6825423518 7.3568544544 6.4763563891 8.0464311276 8.0889947796 6.5778070215 8.6982715737 7.1096444046 6.4616010284 
7.7572219704 9.1197688708 8.8275771375 7.4646889564 9.4110370061 9.5562729425 9.2365002751 8.364028001 9.2294521598 
9.3873142957 9.4452384962 7.5914985184 6.7191891206 8.6112367713 9.5475774056 9.9402052605 5.9238693968 9.7833571026 
9.6288807153 9.8389248401 9.932848361 8.9127874855 9.9496787851 9.6939768664 8.9311442615 9.82728028 9.6303588338 
9.8123391833 9.8262749227 9.7444244685 9.5812906966 9.0350271023 9.6440566282 9.9374682913 8.9744757948 9.1536250893 
8.4724867649 8.8738408446 8.9601427122 9.0010476766 8.9926463324 9.054101074 8.907330301 9.6214960453 9.4456022938 
9.8122055677 9.5834007473 9.8866797523 9.812446644 9.9033542563 9.8896491552 8.5730145051 9.7705120399 9.9021545876 
9.9006944237 9.441551916 9.9284490343 8.5731692998 9.8920724135 9.1156661411 9.007998447 9.1029461622 9.2506844828 