# vtk DataFile Version 5.1
vtk output
ASCII
DATASET POLYDATA
POINTS 1244 float
-2.59168 -3.05136 -2.83803 -2.83867 -4.10564 13.1112 -4.0846 13.6237 -3.7798 
-3.0144 13.494 13.5272 12.9435 -3.50933 -2.02042 12.5353 -4.42945 13.797 
12.2076 11.3421 -2.66868 12.0632 14.4555 12.0437 -3.19687 -3.02042 -1.37685 
-3.2773 -3.18165 0.531169 -2.70041 -2.68772 2.5058 -2.75926 -2.90128 4.31514 
-2.37851 -2.43397 6.03568 -2.19119 -2.22224 8.09589 -2.04385 -2.36377 9.7632 
-2.54082 -2.95278 10.6913 -2.34707 -3.12598 12.4149 -2.0984 -2.13086 -2.14519 
-2.0251 -0.871261 -2.03931 -2.03488 0.010421 -2.01199 -1.92941 1.84685 -1.84822 
-2.4213 3.83326 -2.50103 -2.32187 6.08983 -3.0955 -3.31076 7.87808 -3.49156 
-3.98175 9.85318 -3.13724 -4.5971 11.7652 -3.77088 -3.90292 14.4356 -2.19066 
-3.54259 14.6332 -0.0593861 -4.82235 13.0452 1.72734 -5.8239 10.7777 3.21998 
-7.17897 8.02499 4.40197 -6.22096 10.639 6.41059 -5.40832 12.9763 7.81571 
-3.74895 14.1307 9.53263 -3.56356 14.2472 11.7599 -3.41235 -2.19338 13.1153 
-3.1201 -0.41986 12.1859 -2.93861 0.146827 11.3176 -2.50659 1.93898 10.8162 
-2.64872 4.01473 11.2864 -2.17001 6.21406 11.1534 -2.47406 8.24883 11.8222 
-2.84372 9.62918 11.7397 -3.25636 11.322 13.0799 13.8801 -4.39264 -1.32002 
13.7947 -4.44875 0.408462 11.5009 -5.39753 1.05293 8.76772 -5.59065 1.29551 
8.70079 -6.23395 3.40447 8.64968 -6.34462 5.81397 10.2523 -5.84744 7.71734 
11.495 -5.81639 9.71334 12.5468 -4.89324 11.6025 12.535 -2.05348 -2.37029 
11.7849 -0.524032 -2.34203 11.1546 0.544181 -1.94134 10.8737 2.14217 -2.06071 
10.8047 4.02394 -2.43442 11.0534 5.80157 -2.09084 11.2819 6.89111 -2.23945 
12.6119 9.14022 -3.01766 12.5684 10.5885 -4.52046 15.0045 12.3596 0.853989 
9.91858 9.85954 0.233039 6.83915 6.9143 0.654304 5.12188 5.26297 4.02696 
9.68879 3.49975 5.4107 5.40771 7.33121 3.90557 5.07196 5.71927 7.34691 
7.57816 10.0043 8.28495 13.4315 14.9026 10.5951 12.2239 -2.39393 12.4318 
12.2197 -0.287459 11.5338 12.0267 1.19387 11.0525 11.7922 3.4433 10.6672 
10.9521 5.73324 10.9789 10.7105 8.17051 10.8016 10.9043 10.2877 10.7441 
11.4309 11.274 10.9985 11.506 12.8108 11.4043 -1.38025 -3.12697 -3.67 
0.316145 -2.93394 -3.93664 1.94278 -2.22727 -3.04773 3.50338 -3.34363 -2.7714 
5.70621 -3.23284 -2.40979 7.83033 -2.66363 -1.9549 9.30028 -2.46196 -1.90409 
10.6621 -3.02714 -2.22346 11.6411 -3.53338 -2.43788 -1.12131 -4.03317 14.0046 
0.913157 -3.27967 14.3901 3.73423 -3.72472 13.3161 6.79116 -2.81282 13.2658 
5.05612 -7.17937 12.6548 3.75427 -6.72866 9.55831 6.19497 -6.22501 11.3022 
7.54725 -4.43086 14.0008 10.0566 -4.44178 14.2777 -2.49493 13.4432 -4.06766 
-0.879097 12.0951 -4.54471 1.21991 11.7903 -4.15756 3.14722 10.909 -4.95151 
5.13251 10.422 -4.51322 7.02438 11.51 -4.87378 8.62671 12.8962 -4.11667 
10.4604 14.0339 -3.80129 12.4285 14.4827 -3.1605 -0.732321 13.8263 13.4699 
1.86294 12.5612 13.5597 4.70413 11.5476 13.3723 4.53303 8.28648 14.3972 
5.74328 10.355 15.0878 5.60632 7.51333 14.2702 6.59018 9.09348 9.72389 
7.64262 14.8958 12.2764 9.75689 14.0305 13.1249 -2.26243 -1.19394 4.77589 
-2.63958 -1.2607 0.948983 -2.02535 5.65946 -0.862061 1.26445 10.2707 3.92355 
-1.47875 8.69623 -0.474954 -0.67799 6.29327 8.08184 -1.23664 8.78768 9.81744 
0.44862 9.31752 3.59985 -2.48017 -0.994429 8.29182 -2.24743 2.67923 10.3772 
-2.28152 2.61123 -0.844298 1.22291 6.28444 6.18177 0.719411 2.82592 4.45666 
-0.360904 2.6961 5.48962 -2.61104 -1.0285 9.85121 -2.23706 -1.461 6.48296 
-2.64401 -1.9539 3.15484 -2.58644 -1.10144 -0.882493 -2.30269 4.74752 9.31259 
-2.32724 5.1329 10.6444 -1.99286 6.76537 10.1949 1.7384 5.63679 5.27278 
0.465147 8.25073 7.4879 -0.836877 10.0891 8.91157 -1.11621 12.662 7.51575 
-3.7647 6.58053 5.39182 -2.21645 4.472 0.653919 -2.48677 5.08657 -2.52669 
0.871216 6.67594 3.08918 -0.58256 7.34173 0.329945 -0.35971 8.68143 1.13721 
-3.70726 10.7461 4.32094 -1.40284 12.9138 1.5413 -1.28358 10.6294 0.365616 
0.683419 4.614 2.99967 -1.99669 4.6149 3.51116 -2.67643 4.04746 4.93946 
-0.559379 7.73073 2.9157 -2.46449 7.06274 3.02182 -1.45532 3.50736 1.9938 
-1.30679 2.41368 1.24548 -1.94526 0.99662 0.331781 -1.40568 0.99675 1.7299 
-1.64474 0.927544 3.66374 -1.8386 4.5445 7.64091 -1.71577 2.5682 7.78469 
-1.34417 0.818733 6.22216 -1.66422 0.862454 7.56053 -2.46776 1.08546 9.13255 
1.09692 2.6405 3.5313 -1.81297 4.81466 4.9641 -1.02119 3.81636 7.16692 
-2.37793 -0.828251 8.99145 -2.20919 -1.16805 7.43552 -2.34969 -1.59317 5.63096 
-2.47354 -1.73993 4.23591 -3.09165 -2.31661 1.60791 -2.48658 -0.749128 0.145612 
-2.22415 3.56831 9.90375 -2.33275 3.82007 10.4149 -2.14543 4.90351 9.88042 
-1.53008 5.37878 7.86066 -1.44336 5.63099 8.80716 -1.15604 6.36008 8.55767 
0.343563 7.04208 7.20725 -1.24127 6.63575 9.98622 -1.14101 8.05128 9.46133 
-0.283969 8.00131 8.58139 -0.497294 8.62129 8.78191 0.713294 7.0981 7.04092 
2.49959 7.58728 3.71347 1.41851 8.85238 5.84249 -0.988617 9.23125 9.50392 
-1.50668 10.3822 9.97891 0.0481467 11.4256 5.33767 -2.71076 10.0627 7.11398 
-3.71424 12.1423 5.89243 -0.597414 11.0295 8.72774 0.392379 10.0388 7.37978 
-0.0934811 9.08249 8.15752 -2.54829 7.11846 11.1413 -2.1253 5.3854 10.4562 
-2.06225 3.68882 -0.453866 -2.39464 4.11386 -0.987039 -2.43714 4.97846 1.54359 
-2.24323 4.79114 -0.292429 -2.03588 5.51511 -1.67108 0.171943 6.2853 1.55611 
-0.750482 6.84617 0.335148 0.16882 7.11374 1.71176 1.16458 8.00438 3.15465 
0.341357 7.94699 1.83753 0.498319 8.99653 2.41031 -0.524709 7.92746 0.779535 
-1.2648 7.60317 -0.449205 -1.02201 8.41045 0.00531022 0.142363 10.9777 4.71721 
-0.0217344 11.7482 2.85335 -1.02798 11.7105 3.36757 -1.2396 9.39846 0.109724 
-1.58154 10.4608 -0.265247 -0.546649 10.047 1.2609 -0.796937 9.43069 0.71856 
0.0828167 9.53982 1.90877 -1.5103 7.18583 -1.31399 -1.82523 6.64686 -1.76054 
-2.63283 6.94638 4.16427 -0.731688 8.79895 3.29064 1.54603 7.47506 5.73995 
-0.696969 5.27513 5.30229 -3.15243 6.64507 3.8952 0.122433 8.20298 6.31079 
1.49848 5.61331 5.39701 0.445189 5.27115 3.511 -2.23803 5.98007 0.427087 
-0.450867 3.0887 6.58488 0.332394 8.01715 4.16332 2.08474 5.43916 4.06561 
-0.0247917 4.69832 5.50702 3.3276 7.74384 6.02319 -2.33625 4.55686 4.52465 
1.919 5.66853 4.42379 -1.83518 6.97968 0.350283 -0.018136 8.03135 3.59703 
-0.993338 6.16755 7.30266 -2.58724 8.49068 5.91032 0.983599 7.78891 6.65085 
0.0787997 3.95729 6.13533 -2.40373 5.48419 2.63573 -1.82321 3.63149 1.22446 
-1.65861 3.11692 0.327355 -1.9145 2.56376 0.0648573 -1.0448 2.89589 1.9382 
-0.169725 3.81677 3.40269 -0.344514 2.66287 2.98711 -1.96817 1.98724 -0.679303 
-2.00459 1.07758 -0.68022 -2.03307 0.290214 -0.345125 -2.3983 -0.0473338 0.818728 
-1.18213 0.735584 2.76933 -1.48512 1.58844 2.88786 -2.37483 -0.901319 2.52085 
-2.16769 -0.0650152 1.47049 -2.75104 -1.65593 2.07215 -2.17159 -0.683608 3.8761 
-1.85144 0.0615214 4.32588 -1.88799 1.19532 1.15059 -1.01347 1.9233 2.08136 
-1.84607 1.86768 0.59647 -1.92168 5.43096 7.06936 -1.76039 4.49483 8.65444 
-1.48175 3.64137 7.38347 -1.77174 3.42171 7.98652 -0.891744 2.70386 6.66023 
-2.17471 3.52404 8.91085 -2.20276 2.73124 9.00141 -0.629255 1.87438 5.86887 
-1.19519 1.96525 6.75195 -1.48586 0.915115 6.80407 -1.92155 -0.572602 5.5636 
-1.93272 -0.251287 6.34256 -2.0884 -0.227134 7.1269 -2.28084 -0.063153 7.89047 
-2.47739 1.9593 9.66556 -2.55088 0.942926 9.97641 -2.2576 0.188853 8.80068 
-2.64393 0.0358181 9.78438 -2.16195 1.00725 8.19358 -2.03181 1.85751 8.65382 
-1.74604 1.88396 7.59937 -1.60135 0.262124 5.39194 -0.344305 1.35614 5.41099 
0.34212 2.53929 4.57235 -1.21934 0.876689 4.65899 0.77015 4.77235 2.21562 
-1.35065 3.66649 6.65341 -1.85097 4.61879 6.791 -2.11005 5.71815 5.69276 
-2.09936 5.32237 5.00104 -1.7676 5.31443 0.275568 0.712167 4.80727 5.56304 
-1.05997 5.80181 4.32661 1.42726 3.62414 6.07458 -2.17294 5.82812 6.46307 
-3.02631 5.89121 3.64317 -0.638057 3.64924 0.128962 0.935539 2.76954 1.07782 
-0.781697 3.7782 5.85376 7.96481 -2.01199 4.73913 10.6354 -0.921216 1.48987 
9.42159 6.2099 0.884681 11.687 10.2038 3.71007 9.88692 8.45341 -0.823788 
8.58598 5.72212 8.03177 10.5161 9.1603 9.48961 10.6738 11.7492 6.09153 
9.13513 -0.762764 7.45815 12.2333 2.05843 10.611 10.3343 2.80194 -0.91479 
7.97959 7.47722 2.97704 8.90327 3.10912 3.21568 8.30278 4.08881 7.0071 
10.914 -1.53702 10.092 8.39949 -1.7557 6.34768 8.2987 -2.28379 2.59764 
10.9471 -0.386517 0.0751682 10.6673 4.89069 9.99517 10.3092 6.40683 10.4067 
9.33673 7.06427 8.73426 7.54861 7.84931 5.19038 10.3321 8.92142 7.06052 
11.1501 10.2187 8.59341 9.89388 9.96362 8.8103 10.8246 10.3361 7.50733 
9.92072 4.4134 0.0256915 10.5833 5.32996 -1.20285 8.6654 6.97112 2.63827 
9.12538 7.45459 0.547888 8.41803 8.88449 1.08275 6.41896 9.86751 2.51474 
7.08259 9.99365 2.24132 10.4357 11.345 0.833556 10.2503 6.61191 2.51185 
7.62609 9.16187 6.08449 9.89626 4.96324 4.40872 12.5089 5.95313 7.56344 
9.04402 4.68967 5.10605 9.35938 3.88715 1.58272 9.599 2.49658 0.87652 
10.301 1.03823 0.121128 8.97896 0.756323 1.90897 8.2964 0.0567507 3.44895 
8.75661 2.76627 6.7023 11.5599 1.62599 8.75724 7.84576 0.964679 5.85175 
8.61203 1.44582 7.0591 10.9771 -0.189948 9.6718 9.13229 1.76975 4.2799 
8.59814 5.57313 6.50614 8.36521 5.04149 4.8377 9.8258 -0.724539 8.26432 
8.77217 -0.941273 6.9686 8.13389 -1.87308 5.75157 8.05876 -1.65536 3.84003 
9.51654 -0.37591 1.91941 10.5932 -0.452814 0.78608 12.1398 3.09888 9.9185 
11.1358 4.57708 10.579 10.3579 5.73127 10.038 9.35409 5.17665 8.72313 
9.47611 5.94376 9.03672 8.85932 6.52132 8.06816 7.92793 6.85479 6.8577 
8.54984 7.30224 7.25659 10.1733 8.06891 9.66543 9.71547 7.71409 8.85176 
10.1698 8.32666 8.68858 9.34853 7.90834 7.94093 7.00523 9.30268 3.15127 
9.81598 10.0358 1.99728 10.5479 9.11485 8.89868 11.1771 10.476 9.21305 
11.5272 6.70536 8.20084 5.80054 8.50947 7.11259 8.35953 4.15739 6.70623 
12.8191 13.9591 6.80868 11.7009 11.6609 4.31197 10.6983 9.4547 7.8341 
10.0801 7.42578 9.85228 9.86169 6.70885 9.61439 10.209 3.91162 -0.646027 
10.4024 4.11553 -1.20946 9.72919 5.02894 0.186758 10.3491 4.84143 -0.804178 
[...]
CELL_DATA 2484
SCALARS scalars double
LOOKUP_TABLE default
1.8735699879 -6.5551334535 1.4833189873 -5.0773307926 -2.6665829506 -0.50747547071 1.5223680897 1.6235870148 0.73901028619 
-8.7090847882 2.3296697313 2.4428366276 0.95186555293 -2.0903727169 -2.0036401143 3.1761505082 3.0601168034 3.6605122678 
6.7265159225 2.9491220175 3.3414827884 2.4570886918 -0.19038665399 2.8342675896 1.3453513912 -1.3613626893 -4.603372025 
0.41457108234 7.5165093693 3.7108818402 6.9212826055 6.1711115741 2.5812735769 0.13500800468 1.2309083657 -0.050561156692 
1.1357478735 9.7630942071 1.4681066437 8.177691636 0.73709559512 1.8353175505 -0.92578189232 -0.21224299032 -0.38719109923 
0.071348433838 -7.5531053622 0.34599098301 0.3834284911 0.71302687917 -5.6763961386 0.18233799835 0.64758527971 -1.842038184 
3.9266573739 -2.1772380239 -4.9066650963 -2.3672612513 2.0051639019 -4.199941073 -8.87655506 -0.45476319277 5.7199252122 
-8.2055479596 -0.89013277082 -5.6858002889 -9.2976099369 -7.2156440023 -4.8288896848 0.3648676943 -5.6527122721 -4.045995859 
-0.66036733374 -4.9023751725 -2.1602549527 -0.76723866499 0.39649727647 -0.17776395305 -0.68345017469 0.33821083381 -4.6907149935 
-0.45791401017 2.4032313928 2.1726719816 -2.0767906293 -0.0068552690911 0.33711991485 4.6471339051 2.4187512816 2.0319800844 
3.3129916795 -3.5481426109 -0.12236968631 -3.05261634 0.56534811014 0.87306877776 -4.4380364156 -2.2187637931 -3.047333598 
-2.9087750042 3.7012774811 5.4372814449 0.70784404202 -0.56019585818 2.4584706682 -0.49820417905 1.4264939584 3.5052029683 
1.6013255564 -0.84405344783 2.8371911769 -1.0953776568 1.600005465 -1.4777918499 -1.9912522425 -1.6351324943 -3.4662027514 
-0.56700582448 -1.32986206 -0.38364233875 -1.3096761751 -2.4548560356 1.0816193376 0.64709969103 -7.3173633487 -8.3239114313 
-8.3412594448 -9.1799325037 -5.1837133337 -8.3923319297 -5.8651852384 -9.0303198073 -1.2530477835 -2.0105428629 1.9782409813 
-0.1598015023 -1.9610286151 -2.6501960693 -3.7324719902 -4.982589134 -2.7502904399 -1.5037238037 -7.2221545657 -2.3238751488 
-1.8731800509 -2.3320043882 -2.7932669327 -0.94562651173 -2.4068405763 -2.3561018189 -1.2846030188 -2.8879885419 -1.641992061 
-2.0667950223 -5.214785621 -4.3470221052 -3.5669065502 3.8259022308 2.961082577 1.9819990253 7.8435296901 1.9791432225 
2.8272066597 1.1024029581 -3.0986460247 -0.087554453487 -1.3155387841 -8.5579598414 5.31401147 -4.515002843 0.28308411892 
-4.4339309633 3.0047195489 1.1627638308 -4.0298090932 8.8031816627 -6.2335841415 4.92128368 -2.5993689225 -7.6640298084 
-0.64617292337 -4.9344658246 1.493048313 1.8715699634 4.6058157463 -3.761658497 3.5989984238 9.7004412099 9.0952679597 
8.2031869927 3.9161623633 -7.8182800709 -5.5557651288 3.1398257808 8.2239820016 -6.5245153368 3.7382624758 6.6470203644 
3.4863005937 -4.8620273669 -5.2224782355 7.1103991712 4.9756110855 7.5449431931 9.5576726841 -8.5599166605 6.3154308583 
8.5264600006 8.3662961562 8.1360675627 -1.1343735915 1.4457729797 -1.758193937 2.0621057148 -4.9611780898 -1.5344369361 
-4.3420988561 2.682302212 1.5927987572 3.9145566333 -7.2447698738 1.4124550485 -0.1743980359 -3.7347636668 4.9888906951 
-0.4225311236 2.4477787495 4.2209900208 -9.7177592674 0.79555050671 2.5996025204 -4.1705612834 -4.9119615977 -4.4859422375 
-4.0909422659 0.51946571396 1.782161425 1.3498267418 -4.6313239809 -2.6117691754 -0.91257150879 -0.68932089256 -0.031939357477 
-5.5195550744 -3.9160363239 -6.0827879447 -0.047806021918 0.39861574638 -2.4977471752 0.40006520585 3.0908615151 3.8300566191 
1.8765426023 3.1020335214 0.63029402915 0.64393816352 2.7748834593 4.8457952265 0.32810296101 5.3058385411 3.2454342729 
1.4172948419 4.5088874346 3.7794839579 3.4404229387 3.8318429769 3.2367032247 3.0191299772 3.242734698 3.1668591827 
2.5980725642 3.2024158194 4.5120609074 4.1132564369 2.1808630697 3.1879916775 3.8639834361 2.8305109455 2.867891239 
2.8281225198 2.3870539906 3.3565001671 0.81727580195 2.7437798539 -3.5067753347 -0.27033644321 2.8274894965 0.99393826005 
0.71755047069 4.0835010537 5.740700331 -0.45230004055 -2.8189271098 5.4975105571 -1.9936294921 -2.4804001212 0.84681301497 
-1.7372258403 -0.89117720242 -0.094509146703 0.090744007587 0.29497337921 0.35240402894 1.3997052571 -0.36218029404 2.6433209196 
0.24712311613 4.7166250892 2.5158700575 1.9882825829 4.5482341992 3.9030255199 2.5263578414 3.7208042617 4.4906096146 
1.2434501545 0.67644425467 0.41275062857 2.1771228681 4.1844264933 4.3816984521 4.1572743153 -2.4943966569 0.44254964604 
0.42820867435 -0.077306713275 -0.77769620511 1.3731128072 -0.46757868099 0.42869836862 -0.45781270051 1.179756083 1.9702807643 
-2.7163456349 1.301916721 -1.1131863673 2.602062255 1.1196133031 2.4123672055 3.2086561133 -0.35761249033 -0.19508267411 
-0.46101256663 1.8868961783 3.0677256268 2.733657672 1.1214743484 -0.40000863928 3.091572212 2.7494914725 3.4922427395 
3.6551064724 3.3917277183 3.7995477375 2.3303220056 -0.20016964044 0.57698965737 0.6279811511 5.8230230806 5.2657003834 
-5.7197385991 5.8982564394 8.1830661784 7.344870486 7.2375724668 7.2293953516 -6.0344428511 -3.6293426232 -4.5639579971 
-4.3829257586 -0.062913709781 7.593776556 5.4071476511 7.302379325 -4.8706834109 -4.1073297076 0.56563917937 -0.3732056532 
-1.3619450677 -4.862028871 -2.3546555392 -1.5733826018 -2.6305788621 -8.1848229694 -5.4251530302 -5.3899927417 4.9375188117 
-0.57245453456 6.666586447 5.9230646816 -2.7734052044 3.3687508275 -1.8550700001 -6.4058030302 -0.2235716789 -6.6243545826 
-5.5606160581 -9.9906801581 0.86419555024 -9.9738890991 -5.5602511445 5.5663042202 6.5404020667 -0.060503485182 1.1548096424 
-0.72965970116 -7.9531819984 -1.1412160691 -1.0113078647 -1.1980573119 -8.4978472024 -7.061320361 8.7430022534 -8.7096141801 
1.4911256819 4.0629447782 -0.24393541361 2.3970996643 0.91735301673 1.335022647 1.1704139973 0.98133708514 1.1491047616 
1.7216728305 1.2313627669 0.80946059627 -3.510478103 0.26131259489 -0.50541873583 6.5600841273 4.287093352 6.2462645468 
3.2963221085 5.146238382 0.60962017597 1.3182912633 2.2675677545 -1.6489580852 1.9147820122 6.1951911836 2.7900998271 
5.0383929359 2.9007853789 3.6459031181 1.6087201216 1.401020842 3.2438238553 3.3565822368 3.3263898763 3.0399650605 
-2.2476427797 -1.6226043017 -5.3782924662 -3.8318792382 -4.4378640943 -3.1105713661 -6.1420686075 -6.1553336127 -4.0609141158 
-7.7349154923 8.8702654164 -9.3846819659 -7.9217707235 -4.4671912998 -3.7445871118 -5.2015529359 -2.97017668 -4.4257059995 
1.330166456 -4.5880723025 -5.1184009339 -4.8809492532 -4.1073271601 3.769803282 2.8227433857 1.1416013409 -2.3620127086 
0.82919210504 1.3725007091 7.8843529769 3.4506005141 7.8156724043 -3.2908776993 -4.2335695349 -5.4134520418 0.67385835891 
-5.9766258716 3.6117502963 -4.8536098523 -4.7568705359 -4.4881833738 -4.3036436725 -4.9814666621 -4.4065869066 5.4317738211 
-4.2796116261 -3.1584479618 -2.5978004326 -3.4360437325 -0.82961120834 -2.2952618411 -0.51828057604 -0.13405863002 0.12774949273 
-0.79612631681 -0.98419009424 -0.79271196885 -0.92395603674 -2.2669392488 1.8727480587 0.72570307869 0.95176931804 0.73451634116 
1.3206872099 -0.94097895237 -0.16426217569 -0.90589536071 -1.9900905889 -1.0821019183 -1.6503989631 -1.515226252 -0.011701389348 
2.6076740082 4.0555557679 3.993925326 4.2214970713 -0.75318853825 -7.0663794605 -4.9012151637 -7.0788145013 2.0101385434 
7.602505355 3.2926487689 4.176150348 6.6190525165 1.9783016973 -0.0011814650731 -4.2056138198 -1.202401014 2.0703499456 
2.5026649766 4.6041665456 3.4581888901 -3.3620524434 8.9935290964 -2.8000662018 -9.3980668919 6.5336642911 5.0674817869 
-9.9758082219 -8.5012195889 -6.4417113579 -4.7655140199 6.8253737989 6.436271733 -9.3847342145 4.2568817271 5.1706321948 
3.430875517 4.8787645401 9.0887675394 -6.7410896062 -6.544380801 -6.6328004446 -6.4846002375 -7.9126361049 -8.3434588724 
9.6990406212 3.6322842375 1.3651070743 -3.3946566995 -2.5712524444 3.4588351386 2.1587702846 2.5919499416 1.9436618231 
1.1306677276 -0.3203179831 -1.0908774046 6.8000310753 3.3472993574 0.93185239109 8.8405581016 1.8645406983 2.0470088842 
-0.754476912 -7.1500918105 8.4057165859 -7.4962450142 -6.9713985861 1.9582662256 -1.9329217233 7.5569459194 5.5921662464 
-9.5506710427 -5.5579828165 -1.622795965 -4.7942357593 -1.8896622786 -5.1235540876 5.6074120086 5.9223354991 5.4073026335 
4.3645811828 1.1168435822 6.8568897702 -7.1693991709 -2.0992299207 5.7089212718 2.5122761904 6.6347087865 9.261283358 
-5.2997353656 6.7816348251 -0.18456792801 -3.0922891073 -2.3798617617 6.2955325692 8.8530821567 -7.1734247425 -1.1589867879 
6.077887413 3.2830707299 2.9588080604 6.2030647921 -0.98751956449 -6.0089159321 5.8635030546 7.081144656 8.4320444106 
-1.2393133301 4.7388954019 -3.0289872915 1.8768760571 6.2255632024 0.26342741244 -9.5581687953 6.7248789764 -9.2420502922 
-8.3993289872 -3.6080902203 -5.0122242755 -7.2801768637 2.5967702567 2.1434251502 1.3644635121 -1.3593820493 -1.3667134984 
-0.41580369938 0.20700738536 1.2548891673 1.0995756442 -1.0459244583 0.76462214404 0.49524495578 0.023581713171 0.97179175367 
-1.0334085348 -0.12959551339 0.50226628787 4.8149546731 0.58756099314 4.6015704733 0.62613640875 3.6218495691 3.765501061 
4.0704556334 3.1035065338 3.3074875144 4.3871364656 -1.0182352937 3.8947701868 2.5829987668 -2.0281301504 -2.267303897 
-2.3588084148 2.9921923216 1.9125840799 -1.0118391064 1.7663607051 -3.6429342297 2.8670610817 -0.85464069274 1.0600233624 
-1.1016856201 -4.2237150049 -0.24491741603 -0.67634979182 3.940185946 4.6796272942 4.2317932385 4.1612792632 -2.3291411814 
-0.98781717387 1.8913974336 -0.27761283706 3.9954312503 -1.3518726656 4.8420783942 -1.2913304632 1.0647536605 4.4614497982 
-0.3098821312 2.1690516885 0.96699885636 4.8843823517 2.0652891056 1.9127862179 7.6271491394 -7.7946594027 -7.4621380729 
-8.2807596339 6.3532066294 -2.3300375286 -0.28362222559 -0.0765333155 -1.9819963224 7.7372513983 8.2479530063 9.0712894392 
0.13303374243 1.0173594244 1.9190650264 0.47109428778 0.470940011 2.3086622185 1.5612211855 1.5574367847 0.48824161216 
1.3017339913 0.94076920868 1.0258041585 1.2339054316 0.72763323237 0.51655760449 1.006826223 3.2935135686 -2.781311061 
-1.929560294 -2.5910480109 0.23129883189 0.2848576607 -4.2646536426 0.36011246786 -4.3307476575 -0.70740933661 0.61038211956 
-2.3822683526 -2.0113689218 1.9581871584 0.60863385416 1.96429399 -3.2742524825 -4.5447183961 -3.8412554396 -3.8576615376 
1.939446872 -0.56145838727 -1.5490548112 -0.73494261126 -5.2238424104 -1.437073424 -4.6700088502 -1.4021508624 -0.37622497806 
-0.2861413432 1.9263801778 2.4477488211 0.78050890395 -0.41739806676 -1.9970523465 2.1786980684 -1.519449609 -0.50059389514 
-0.47276181906 -2.4694154193 -8.0390565228 -1.5105438804 1.9742266517 1.0936660796 9.6193212497 0.11596302522 -5.1828123854 
1.8858938614 0.45817490793 -0.16881725708 0.82634664192 1.9293993955 -7.1967515534 3.3566059211 0.15487826681 -5.8309059974 
1.5742785866 -1.4449311791 1.4054326508 1.74713914 -0.040502265098 6.3785321201 0.87837650582 1.5944478813 -9.2146688524 
7.3595119409 -7.3163043935 -7.9321147622 -2.7786964095 3.5569586348 2.1462269623 2.8177870224 -9.7194220548 -3.7456904169 
-6.1484619688 -5.9579942755 5.786010822 -6.5960607884 -8.9603905058 6.5550049419 4.7634135828 1.0013432328 0.89357802009 
0.91291660038 -7.812360951 -8.4507589153 -8.5830146309 9.0557992721 -0.88782293789 -7.8124277676 5.302194237 9.3383806482 
-1.5966460007 -6.9737357544 -6.3337638677 -5.9921107215 -1.7268016154 1.8268506351 1.3102134897 3.7815187304 3.9740685183 
-0.18262852835 3.6986027117 3.5436835628 -1.4796293268 0.93960176705 3.7812380041 -7.4842091849 -8.5441335849 -7.8294179275 
-9.0460812655 -8.3725716138 -6.5154301508 3.6958401981 3.7848196001 -0.16466557314 -1.3721487007 -8.7375351346 -2.8987704323 
3.1532455049 5.7063446166 1.9727198497 2.5340153736 5.0137589375 4.1843962395 2.5830358712 2.1844272646 -0.84481498268 
2.5875727952 -3.1732322212 2.4990193766 -3.0051678989 -8.3826762272 -6.1484011206 -6.7489799308 -7.3439453331 -8.5954256946 
-4.880677182 -5.0373191976 -5.2649122388 -5.0260731399 3.9512339776 -9.2933533837 -2.7993180834 -7.3984348196 -6.1835548482 
-7.8288805434 -6.4164160618 -1.1673619535 -8.9390986172 -8.4619325654 -5.1627341416 -5.6967585205 -6.2463452185 -5.731702856 
5.9439350305 -8.604861061 -9.9530180939 -2.0607762149 -8.6602611227 -6.337094076 -6.883772982 -7.9047318506 -5.9047432789 
-5.9070118159 -5.9386412849 -8.0305282055 -6.5950761725 -7.1521591993 -6.8597192583 -6.9064298292 -7.1831128021 -6.4472990942 
-6.8808424575 -5.3509610093 -9.0293149553 4.4464006283 -1.3930997702 -1.0901089364 -9.5671893216 -5.6063924673 3.3738076275 
-9.3113343626 -9.5549995913 0.67346439747 4.7660198887 -5.6339774351 -9.2928474327 -8.4831432972 -8.9424610217 -8.3591287063 
-9.3946069304 -7.7796108899 -9.221785077 -9.2464813253 -8.8468588074 -9.0945666458 -8.978802125 -8.6002496918 -9.5206877216 
-8.2888353242 -6.1383825524 -6.8276208472 -6.1607981278 2.1648627132 -4.2406883588 -3.3183713782 -4.7814746639 -6.5285130737 
-7.1875037921 -8.5317459788 -6.6770093132 -3.3248388862 -7.7915956504 -6.670790853 -8.3597517565 -7.9701695203 -9.9427373246 
-9.1264929135 -8.7301946388 -9.6096996679 -9.0760434253 -9.513757092 -9.921941959 -8.603587881 -9.2025697471 -8.8867898466 
-8.5763100885 -9.0997159185 -9.151315132 -9.1511429196 -8.4705302508 -8.3126733208 -8.518872063 -9.2834507388 -8.168756419 
-7.4646663545 -8.4890447007 -8.3610202112 -7.3981120807 -7.9548792148 -7.5586994832 -7.4999169912 -8.0279224075 -8.5241190305 
-8.626716745 -7.2215276803 -7.0578789172 1.7609770795 -8.6593002155 -6.5552386608 -8.8501011873 -4.1615470384 -5.1505387438 
-8.6592586079 -6.4573539707 2.1573459353 -8.8166890501 -8.9020402043 -6.5683356697 -8.4553359238 -9.4328236551 -5.5332176801 
-8.0114700347 -4.5491335737 -8.6752538533 -6.0377605521 -3.9523178423 -5.0271940354 -5.4364516114 -4.6804618142 -6.5795814047 
-6.2888162714 -5.3678950069 -2.0979524992 0.28494681601 3.8077910892 0.83524602287 -2.029210915 -9.0786114798 -6.4893517754 
-8.5381197547 -7.5519034895 1.9839386384 -4.2474748313 4.8030803546 -7.3885894726 6.5638013879 6.3520233277 6.1067913134 
-6.8072275732 5.254637672 8.0846943826 -8.0523136861 -2.2384758405 3.7090299358 -5.8288304669 -1.7066728765 4.2741535837 
-0.18490421022 -3.0032082691 -2.6370122373 4.8348415489 6.1820744271 -5.7685227471 -5.7501878754 3.5964543318 9.9415341903 
7.0906463983 -3.9649723613 -1.7824478437 -5.7076191697 -3.7719608461 -3.6907882183 0.18192874305 -7.6392452723 -8.0634305891 
-7.9740783504 0.10328579991 -3.8754703419 -8.2624688483 -3.1367788252 -6.8734929279 -7.7608770837 -8.8260642274 -5.8768294991 
-9.3684705217 -9.189303123 -8.0184742775 -9.3608452248 -8.5362010648 -8.6314804206 -8.6198173105 -8.5823760463 -7.3884704748 
-8.949760911 -7.0952908628 -7.1301458094 -1.4534210584 -9.6829413143 -8.1461541047 -9.2421203909 -8.4946838665 -9.4585664202 
-8.3106293797 -8.4307535931 -9.6468078635 -8.6404924446 -9.4339912293 -9.0542845049 -9.1674957318 -6.0457874279 -7.8320317386 
-5.7811306583 -3.9157854057 -8.5842807859 4.6310297211 -3.8438012389 -7.6862228915 0.60565381357 0.26118320239 0.34997540378 
2.0056749261 -9.2361327444 -7.59196741 7.4819522202 -8.1101996525 -6.9874775356 -8.4199320359 -8.4055242326 -8.089543504 
-8.5955972226 -8.67403423 -8.4758835593 -8.4687007855 -8.2680478377 -9.0543588757 -8.3872808106 -8.841747219 -8.3218822375 
-7.7263880362 -8.4252699156 -3.5333736972 3.3283891771 -9.0941796311 -2.4327573509 -0.44511355411 8.6404916766 2.8115783717 
-6.4363771774 7.4503572971 -9.4859897345 -5.9811649577 6.6754049022 6.802671756 1.2361543891 -9.4567641413 -0.98694676271 
-5.9959253815 -6.3384258875 -9.8541852227 -9.8690909916 -1.6458911952 -5.1573085289 -4.0126487522 -4.0573408582 -8.9429002726 
-2.3503852036 -4.59146367 -5.8321304482 0.050518709645 -9.6175191443 -4.1309488607 -9.2869802396 -0.080427194119 -7.35614703 
-5.5191021136 -2.9391103737 -4.3927516015 -5.9833683485 -5.3666849907 -6.1424375433 -4.8076302506 -6.7691440258 -6.9591744469 
-8.6175647266 -4.7969983708 -7.7777116472 -9.0950990839 -8.6828577109 -8.8848803684 -6.1501185089 9.6004086899 8.9477506094 
-9.7293259528 -2.5311034784 -6.6795555286 -9.1273832034 -4.4948438259 -8.427480005 -9.0062728799 -6.0942853363 -5.3367793331 
-4.0682912146 -8.3881347603 -4.6395516216 -7.1928447621 -5.8131509084 -6.4502265551 -6.4679100892 -9.603223326 -9.4304525037 
-9.4504798295 -9.7512094817 -8.4844750657 -9.6592201363 -9.6621606978 -8.7707569185 -8.3839931722 -2.5658655322 -9.9483437646 
-9.8211323635 3.3372191558 -9.7979658237 5.5210766199 -1.3718858113 -5.4177343127 9.5055600095 -5.0708592399 7.7715281774 
-9.8644380725 -7.7272837764 5.3059557024 4.5325254563 -8.511863188 -8.3779154756 -8.084644191 -8.7877411276 -8.5897615391 
4.2696318366 1.5127319695 7.6985658056 -3.4733377029 -6.1363162878 -9.4781274609 -6.4741356217 3.2284306391 -7.6239564578 
-8.3407218857 -6.6867254518 -6.459313698 -9.0008363569 -0.25326394911 7.7173184418 -8.9647406635 -8.1512328628 -6.1327803316 
-6.7612839341 -5.0093595954 -8.261384985 -5.4844266453 -1.4691080599 -8.9010259508 0.44986240024 -9.4680003233 -8.9586886544 
-6.5396550659 6.7855880148 6.0414516558 6.3893060485 -2.9161112131 -0.57205401695 -3.0219844323 -7.8812808178 -1.7458655177 
-2.8830421456 -0.97901629735 0.45014443388 -4.2803841542 -7.7646084348 -5.5302464647 -8.9053023353 6.4764272485 0.86662886511 
-1.3219085156 8.9752177396 -1.061764263 -5.1020622686 -1.6335033185 1.2540720328 -3.0477596644 1.1715286407 3.2341717924 
1.2061056009 9.2710860722 8.778859561 9.3705830004 9.2844719336 1.924783971 -0.5509923969 9.2975329646 5.7576448962 
9.8002491718 9.4441522286 9.9693137953 9.9992011216 5.1887917511 6.9511523281 7.2246701926 4.7548916876 9.6926447174 
7.974935589 9.0778462338 9.1657291272 7.7643921186 9.4082558505 9.297174753 8.9659055589 7.0007926181 8.4660023567 
7.083240883 7.3650496156 6.2777025412 6.9404724941 7.3696175648 7.3046973775 5.6233998578 4.5411487702 6.8270657709 
6.120969274 5.405425862 4.9378576751 6.3142693281 5.4130162927 8.0173233125 6.9533409811 5.8594511773 8.711040404 
8.5362438979 8.5861566604 6.5577790811 8.0499284978 6.0975324945 6.6846702284 7.9451253181 6.9855103024 6.6822383759 
6.6302064205 7.1507450043 8.1688412432 3.1315567938 7.7217043781 8.982032637 7.5002793455 8.2794689101 4.3401170343 
7.4829885593 9.0455588128 8.4886267246 -2.6160178558 2.515188567 6.3224714166 8.1818722821 8.4585498137 8.7030446719 
9.4249764442 7.4176903269 9.4772171142 9.1597793595 9.2800240821 9.094569828 9.3143585071 8.0778049226 8.3786794811 
8.1750134517 9.4822620445 9.5994583822 9.5429866702 9.2322012369 9.2532134659 9.2091893892 9.1308621024 9.2953996909 
9.6008169869 8.0294659472 9.4975270985 9.3796861028 9.5014747968 9.7312492781 9.4883897782 6.7278410715 4.9515694158 
5.5862847369 5.7910144976 3.8075435337 5.7232492151 4.8791443499 5.5360807552 7.3134168491 8.4269372829 8.0361600696 
7.8363797636 7.3791509856 7.3588517386 5.170039725 4.4344773757 5.843200166 7.7505816213 5.7430228418 7.7177705629 
8.6400936056 7.7231476147 6.5318476776 8.2864015686 9.2616595953 7.2561208331 8.3750000845 6.7055701122 7.6671917988 
7.0625351437 9.3067383041 8.7317505338 7.0652127655 9.3274887162 9.5820305636 9.6097630919 6.5947269021 9.6052808732 
9.2794923487 9.7107609515 7.5025372735 7.5352709271 8.4909889808 9.9761795422 9.5330336198 5.7277936588 9.5152866022 
8.6725869542 9.947633098 9.5658479805 9.7874043657 9.8774541109 9.494994357 9.7909616864 9.8841779522 9.9402666109 
9.6898373939 9.9175058633 9.6434091464 9.151661613 8.9411596654 9.7554651874 9.9569560983 8.4689863928 9.398349315 
8.2849295646 8.3209391945 9.336975343 8.9297888039 8.0762524594 9.2743242474 8.5152903697 9.2004776551 9.0467466763 
9.7691525164 9.9727867688 9.3502455999 9.7932351063 9.9725766275 9.9988499045 9.9408867369 9.9731240424 9.7398829039 
5.0869226456 9.7982098924 9.8438625255 9.566703993 9.4091893384 9.9682898305 9.7354952217 9.9965668169 9.9554462469 