# vtk DataFile Version 5.1
vtk output
ASCII
DATASET POLYDATA
POINTS 1244 float
-2.47499 -3.1901 -2.78064 -2.78619 -4.05517 13.2864 -4.37228 13.6599 -3.98828 
-3.02533 13.5166 13.5501 13.0856 -3.56144 -2.22967 12.2605 -4.47126 13.5843 
12.2545 11.3787 -2.72237 12.1309 14.5595 12.1674 -3.01206 -2.99884 -1.43791 
-3.4006 -3.29833 0.464499 -2.87493 -2.81768 2.48006 -2.79599 -2.89985 4.38761 
-2.50138 -2.69174 6.09913 -2.21493 -2.34272 8.13045 -2.41068 -2.26648 9.65573 
-2.18172 -2.96751 10.8715 -2.41574 -2.95835 12.7029 -2.12125 -2.3851 -2.25661 
-2.05688 -1.03025 -2.07831 -1.8978 0.0889729 -1.9114 -2.10584 1.80978 -2.01458 
-2.53253 3.86238 -2.35469 -2.64937 6.0385 -3.23423 -3.3214 7.91006 -3.48328 
-4.00231 9.8958 -3.16614 -4.35512 11.866 -3.66846 -3.86636 14.1579 -2.20408 
-3.66391 14.9257 -0.102048 -4.77458 13.0253 1.73025 -5.85014 10.7888 3.25176 
-7.31653 8.04332 4.40514 -6.23828 10.5897 6.40577 -5.43581 13.0124 7.78215 
-3.81676 14.3848 9.53185 -3.53225 14.2836 11.8453 -3.1983 -2.32786 12.7929 
-3.17816 -0.647527 12.108 -2.8816 0.209344 11.3798 -2.72218 1.97503 11.2127 
-2.57303 4.02579 11.1558 -2.30295 6.24773 11.1547 -2.63743 8.41225 11.5351 
-2.94383 9.58778 11.9137 -3.22532 11.3947 13.0226 13.8607 -4.33445 -1.2573 
14.1548 -4.67085 0.484582 11.5033 -5.74974 1.04544 8.73553 -5.73351 1.30268 
8.67665 -6.1997 3.46744 8.82461 -6.06142 5.71995 10.2617 -6.19951 7.69601 
11.5832 -5.97499 9.82095 12.5221 -4.85569 11.6423 12.5977 -2.00999 -2.45757 
11.7473 -0.649132 -2.35734 11.1539 0.498894 -2.09492 10.6485 2.09406 -1.86579 
10.8496 4.03613 -2.25829 11.3643 5.65092 -2.23127 11.3573 6.87098 -2.37182 
12.5168 9.07587 -3.15392 12.6456 10.5218 -4.62953 15.08 12.3672 0.76883 
9.95211 9.83927 0.369694 6.67555 6.87604 0.503569 5.15108 5.29945 4.01255 
9.61873 3.43503 5.35615 5.37678 7.27902 3.91292 5.0525 5.61332 7.31337 
7.6204 9.99641 8.30355 13.6482 15.0003 10.5063 12.7691 -2.26502 12.5604 
12.0157 -0.414762 11.5161 11.8609 1.17889 11.1364 11.8251 3.43838 10.7269 
11.1468 5.77823 11.0667 10.7598 8.15583 10.8029 10.6243 10.4374 10.6015 
11.2831 11.3044 10.9566 11.7222 12.8241 11.4435 -1.53216 -3.25212 -3.61642 
0.0760922 -3.16039 -3.91562 1.94583 -2.23018 -3.05535 3.56335 -3.67096 -3.03278 
5.68407 -2.96354 -2.23678 8.03124 -3.10447 -2.17845 9.11915 -2.725 -2.10413 
10.5393 -2.9523 -2.10787 11.7118 -3.38918 -2.43427 -1.20001 -4.06486 13.7474 
0.847009 -3.59929 14.7853 3.74189 -3.59016 13.3079 6.83418 -2.91895 13.2735 
5.0322 -7.37808 12.6168 3.96235 -6.75228 9.68694 6.12186 -6.03032 11.2256 
7.54885 -4.81783 14.2695 10.1088 -4.44559 14.2195 -2.44704 13.3822 -4.03898 
-0.954663 12.2327 -4.73803 1.18087 11.7992 -4.14439 3.11913 10.8238 -4.71476 
5.14886 10.5134 -4.94525 7.0447 11.4297 -4.62827 8.64999 13.017 -4.32896 
10.5219 14.1042 -3.77858 12.4255 14.4277 -3.09927 -0.768531 13.8611 13.4279 
1.92495 12.6544 13.7835 4.63838 11.5231 13.273 4.59654 8.17088 14.6491 
5.71437 10.4654 14.8614 5.57178 7.45689 14.5183 6.58013 9.09057 9.72531 
7.62468 14.6824 12.2886 9.73493 14.2458 13.2327 -2.30234 -1.20925 4.77366 
-2.78504 -1.21982 0.951422 -1.89788 5.50586 -0.922404 1.41648 10.4234 3.94039 
-1.49186 8.70979 -0.526575 -0.734738 6.3415 7.95766 -1.28553 8.7934 9.78596 
0.43975 9.41151 3.46038 -2.31328 -0.980019 8.39235 -2.49334 2.59382 10.2013 
-2.01151 2.59093 -0.813709 1.17457 6.19072 6.02424 0.714557 2.8205 4.40779 
-0.360942 2.67378 5.50759 -2.73422 -1.08022 9.80851 -2.17171 -1.42025 6.52712 
-2.64647 -1.97769 3.15242 -2.492 -1.09437 -0.894709 -2.22721 4.64402 9.26095 
-2.40619 4.89185 10.7556 -2.12153 6.59056 10.426 1.78279 5.50236 5.3662 
0.397885 8.25913 7.4475 -0.805111 10.0957 8.94723 -1.21243 12.5568 7.49872 
-3.82229 6.51053 5.4122 -2.19837 4.4629 0.637756 -2.02256 5.0012 -2.47254 
0.86573 6.66148 3.08672 -0.683469 7.35196 0.302852 -0.243419 8.70153 1.02951 
-3.72843 10.7139 4.29607 -1.41376 12.9352 1.50392 -1.31558 10.6304 0.401988 
0.634166 4.80939 3.04832 -2.11168 4.58328 3.38904 -2.79907 4.01089 4.92995 
-0.578802 7.77991 2.928 -2.55596 7.16044 2.94208 -1.45477 3.54508 2.02197 
-1.26583 2.38999 1.17003 -2.12982 1.03284 0.348991 -1.57145 1.04792 1.84127 
-1.63029 0.910023 3.638 -1.85644 4.55639 7.65325 -1.70302 2.5226 7.82911 
-1.24765 0.739621 6.19951 -1.76481 0.880461 7.49561 -2.4288 1.07866 9.15725 
1.19559 2.61887 3.74177 -1.71328 4.92103 4.98476 -1.06095 3.90096 7.02925 
-2.34179 -0.899041 8.88068 -2.23151 -1.1484 7.36055 -2.39489 -1.63395 5.55576 
-2.54732 -1.73471 4.24227 -2.97451 -2.34693 1.56874 -2.51438 -0.747611 0.137501 
-2.26606 3.64177 9.98059 -2.49821 3.81774 10.444 -2.16182 4.82538 9.88916 
-1.72799 5.5294 7.83647 -1.6056 5.63674 8.72847 -1.02759 6.29215 8.73262 
0.436436 7.09238 7.20915 -1.59402 6.88076 9.64472 -1.11967 8.04476 9.47711 
-0.399019 8.03771 8.53214 -0.45855 8.63387 8.84227 0.685235 7.10126 7.01669 
2.53507 7.5723 3.4583 1.54559 8.92669 5.8734 -0.925937 9.20628 9.56722 
-1.44764 10.4069 9.99024 0.00651114 11.4142 5.36046 -2.72056 10.072 7.18786 
-3.75662 12.1795 5.78619 -0.619376 11.0907 8.731 0.244678 10.0085 7.30159 
-0.112289 9.08116 8.1385 -2.37612 7.04099 11.2115 -2.03198 5.61238 10.3928 
-2.24324 3.76259 -0.490925 -2.3647 4.07686 -0.97506 -2.39733 4.96537 1.55904 
-2.45222 4.86398 -0.275542 -2.45508 5.58041 -1.84795 0.195185 6.24046 1.54287 
-0.608909 6.9114 0.169154 0.194755 7.10985 1.70109 1.26333 8.03017 3.16218 
0.248733 7.94973 1.88765 0.51302 9.00725 2.39805 -0.537952 7.94077 0.756255 
-1.33882 7.53571 -0.450012 -1.11897 8.41682 0.0834306 0.116047 10.9164 4.65024 
-0.163306 11.6482 2.92066 -1.02104 11.8349 3.44133 -1.2256 9.42634 0.0469726 
-1.72104 10.4359 -0.199216 -0.583693 10.0406 1.27004 -0.793903 9.44311 0.683294 
0.0867724 9.54983 1.91776 -1.71355 7.2585 -1.27551 -1.9236 6.56779 -1.79694 
-2.65368 6.91472 4.13185 -0.745604 8.78923 3.19066 1.52258 7.46988 5.80084 
-0.568616 5.13177 5.45011 -3.15822 6.66968 3.85904 0.180796 8.14281 6.26696 
1.43148 5.58464 5.48166 0.387705 5.32786 3.55119 -2.23169 5.85761 0.463603 
-0.378451 3.06038 6.70312 0.314105 7.97083 4.21355 1.86672 5.59046 4.19867 
0.00160981 4.66839 5.52947 3.20122 7.74017 5.8956 -2.29622 4.59094 4.50703 
1.9843 5.60628 4.39644 -1.85739 7.05167 0.307957 -0.00450765 7.83564 3.69358 
-0.969555 6.12431 7.27774 -2.38735 8.37672 5.87533 0.889503 7.77712 6.55707 
0.0733395 3.90671 6.21809 -2.70582 5.39666 2.60302 -1.89418 3.59359 1.15203 
-1.90446 3.08527 0.327253 -1.9018 2.61512 0.0702102 -1.0482 2.78908 1.80747 
-0.221215 3.78457 3.44954 -0.257148 2.63832 2.92244 -2.14032 1.90452 -0.625591 
-2.02457 1.08172 -0.685851 -2.17743 0.402317 -0.414909 -2.36431 -0.0746434 0.798394 
-1.21084 0.694394 2.76495 -1.66521 1.64921 2.76517 -2.53253 -1.04916 2.50499 
-2.1517 -0.0981521 1.43162 -2.61279 -1.71846 2.10352 -2.19878 -0.678809 3.87016 
-1.71281 -0.0384628 4.30039 -1.82919 1.16439 1.09581 -1.03317 1.94163 2.08648 
-1.72955 1.84247 0.571786 -2.05035 5.44213 7.05152 -2.05901 4.49504 8.59059 
-1.53779 3.60941 7.34416 -1.75236 3.41942 8.00484 -1.11428 2.70079 6.55129 
-2.1632 3.51428 8.94762 -2.21397 2.74569 8.96678 -0.770909 1.89845 5.81182 
-1.16949 1.95376 6.77126 -1.48369 0.921203 6.85831 -1.97742 -0.575322 5.58907 
-1.8831 -0.291975 6.38261 -2.00632 -0.251735 7.15021 -2.21241 -0.102432 7.93339 
-2.45362 1.93822 9.72399 -2.70754 0.94556 9.95677 -2.56865 0.199039 8.76637 
-2.64159 0.0449742 9.7936 -2.14826 1.02847 8.2009 -2.12202 1.87442 8.62372 
-1.74779 1.84722 7.61889 -1.65293 0.277729 5.38574 -0.429815 1.41022 5.28149 
0.305809 2.55244 4.43423 -1.3997 0.934264 4.75799 0.815034 4.62125 2.37871 
-1.3365 3.72761 6.69954 -1.8327 4.61407 6.79002 -2.14538 5.69324 5.65494 
-2.02716 5.32202 4.96988 -1.78842 5.22909 0.264266 0.798907 5.0546 5.69386 
-1.10578 5.73114 4.36562 1.51568 3.56372 6.1729 -2.11179 5.72479 6.35083 
-2.71865 5.89013 3.66293 -0.679338 3.70393 0.180164 1.01459 2.74601 0.966237 
-0.81345 3.68626 5.91005 7.87473 -2.03589 4.73084 10.5997 -0.949081 1.43482 
9.42791 6.19773 0.882529 11.7282 10.291 3.53969 9.87747 8.44695 -0.833858 
8.67924 5.72569 7.91423 10.5528 9.15194 9.46449 10.7604 11.7334 6.03787 
9.11149 -0.765873 7.45315 12.3978 2.24567 10.3546 10.5841 2.91317 -0.830018 
7.77239 7.58674 2.91105 8.81713 3.11553 3.16666 8.19615 4.04971 7.05896 
10.7579 -1.51285 10.1803 8.33396 -1.77 6.37595 8.18127 -2.301 2.54476 
10.9355 -0.383864 0.0689914 10.5774 4.944 10.2 10.3854 6.41863 10.2964 
9.29992 7.09117 8.76635 7.46238 7.8729 5.21861 10.3318 8.86764 7.04583 
11.1297 10.2228 8.59388 9.87537 9.95878 8.75338 10.7743 10.2119 7.43227 
9.7645 4.41831 -0.00169379 10.4848 5.33709 -1.22751 8.61471 6.92226 2.64644 
9.15246 7.51522 0.561873 8.41964 8.97969 1.15208 6.13522 9.86258 2.49292 
7.20977 9.96947 2.0839 10.447 11.3969 0.81861 10.1937 6.58691 2.44207 
7.47886 9.27354 6.04153 9.8559 5.02103 4.39362 12.5077 5.97891 7.48706 
9.15453 4.76189 5.11604 9.28732 3.93876 1.55187 9.6054 2.50684 0.906687 
10.3166 1.02817 0.126577 8.87322 0.826287 1.91092 8.1893 0.016923 3.29471 
8.65346 2.53419 6.81915 11.3591 1.75749 8.72621 7.70031 0.938736 5.87173 
8.58224 1.44175 7.09341 11.1925 -0.368729 9.53209 8.87783 1.76595 4.4385 
8.60581 5.66558 6.5101 8.27063 5.0625 4.85231 9.84255 -0.764707 8.27368 
8.75531 -0.944593 6.95766 8.03445 -1.90996 5.7749 7.98499 -1.69436 3.80179 
9.51563 -0.430395 1.92444 10.627 -0.437029 0.785769 11.7861 2.98414 9.89337 
11.241 4.64917 10.5012 10.3538 5.75842 10.004 9.36285 5.17976 8.74141 
9.46178 5.97197 9.04088 8.80535 6.56701 8.12568 8.02971 6.81592 6.76837 
8.57374 7.29062 7.22258 10.2622 8.01661 9.68609 9.75338 7.63115 8.85368 
10.0414 8.39006 8.72084 9.33384 7.90477 7.96508 6.81567 9.39753 2.97214 
9.83298 10.0798 2.0672 10.4069 9.11078 8.89031 11.1544 10.4984 9.20297 
11.517 6.69263 8.20532 5.76501 8.52645 7.12858 8.37129 4.12063 6.70506 
12.8506 13.9829 6.81971 11.6901 11.7276 4.23086 10.7614 9.40919 7.83399 
10.1006 7.39596 9.88118 9.77467 6.73348 9.66168 10.0268 3.86259 -0.711876 
10.3514 4.09132 -1.20336 9.62198 5.01723 0.231606 10.2756 4.85289 -0.863196 
[...]
CELL_DATA 2484
SCALARS scalars double
LOOKUP_TABLE default
-2.1709901364 -4.7563505066 -0.55233862966 -7.0141611366 -1.3564553417 0.077295839447 -1.5891750156 3.0372308598 1.5611627095 
8.5237331308 2.7473547932 2.1346494009 2.2469570719 1.2749978219 1.9262515096 3.1165948362 2.9300091921 3.4451108266 
6.1625023545 3.0425385728 2.4654776886 2.232493798 0.55013446235 0.8757884373 0.71746293095 -2.2757946558 1.8965140561 
-0.68066525452 4.4648357392 2.3645824384 7.745412524 6.007707224 3.1977670425 0.6855314315 0.57759048457 2.2798401547 
7.7102901143 0.44540989495 -0.83503311201 2.2030131506 1.4960004714 1.1105240988 2.0627249622 2.3034869025 -1.153354318 
0.1619291915 -7.4316330865 1.4077697688 0.18908590053 1.4480240569 4.774853172 1.6269515419 2.7576423686 -2.0881101295 
2.9214118604 -2.2425641745 -4.8792401231 -2.4277967211 2.1190673687 -4.5194822126 -9.040995888 -0.27851293888 6.1104615417 
-7.67926351 -0.66413180529 -5.4600238496 -9.4198896997 -7.0241739464 -4.6872290505 -0.099745134573 -5.9883590205 -4.5886269351 
-1.1958942819 -5.459124452 -2.1096719819 -1.1605525333 2.6249052463 -0.93078888264 -1.167349128 0.0030111203507 -4.8101587692 
-0.83925075995 0.90844603228 2.942291408 -0.011518840213 -0.59077984601 6.4386143765 3.5642638908 6.5134619114 1.1920428923 
2.0505115759 -0.67931954658 -0.78930260494 -0.42373458373 -0.16083319284 -1.0989969408 -1.624322802 -1.7808714409 -1.7240486742 
-4.478106382 9.6998734677 -4.3971664903 0.54896380443 3.0394233878 -2.4363930272 3.9064044915 -2.4638267025 -2.5090546163 
2.5918285627 -0.75898072889 -2.848490105 -0.86256856512 1.9147610822 -1.4268945267 -0.16506418239 -1.0728681317 -2.6998122046 
0.45417045572 -0.8101088435 -1.5286096857 1.1247594209 -1.7675644172 -0.36515933696 -0.73946906947 -8.3773040355 -7.4469837073 
-8.2525931065 -8.7318964135 -5.1890096168 -8.7302078198 -6.0714560283 -8.5553398252 -2.3278836017 -1.5951326951 1.046569206 
-2.7750120134 -1.6216728126 -1.4483311149 -3.2490502869 -4.6468180383 -2.5481688377 -2.226518476 -6.7170763934 -0.73646512412 
-1.8822537869 -0.66847649979 -3.1503587173 -2.0681750285 -3.055882974 -3.0216172364 -3.0052281607 -2.6646358551 -2.3296860781 
-2.9210319146 -5.0803188563 -3.5092287044 -3.521375298 -0.93370414018 -3.0158577343 3.5223649483 3.3618478609 4.0253835516 
-1.5749822916 -1.6223524947 -2.2325006863 0.51000600869 -0.51745701203 -8.4600427265 5.5194303189 -4.427303786 0.28554149975 
-4.5807430229 2.9316471336 1.103174441 -3.945194196 8.8282333479 -6.2378895317 4.8799080875 -2.8782091537 -7.7711293992 
-0.69340193698 -5.201017324 1.6676755344 2.4701828108 4.317055369 -3.4387216287 4.0652658284 9.6623841488 9.1006656592 
8.5070214467 3.8749397895 -7.6247316248 -5.4056597036 3.2955927546 8.1884058303 -6.4351279919 4.2736107319 6.4686063166 
3.5535511472 -4.7883117723 -4.9090041944 7.0604680335 4.810450082 7.5922594385 9.4938669993 -8.5552535025 6.2284503849 
8.8297228162 8.2035303182 8.0530052797 -0.40599101889 1.5922363206 -1.951627145 2.4331121231 -4.679734875 -1.755331865 
-4.800896183 2.9011823601 1.3937061815 4.0714084463 -7.3592278112 1.2789073741 0.12963416261 -3.702137 4.7657389812 
-0.19034296497 2.1433754214 3.8651000562 -9.7764754535 0.41104990345 -1.4389489405 -3.3962430822 -5.9742251095 -2.9949907729 
-2.4565255469 -2.2578543759 -2.4880362359 -1.5196830228 -5.0217690343 -3.7654883272 -2.2890133049 -2.2456164219 -2.466074396 
-5.1909817825 -2.4032596257 -5.3583612237 1.9646735289 -1.3086300506 1.0592981381 -1.5295515678 1.7422214601 2.3524807463 
3.2799608541 2.6040126221 1.8396778402 0.55352984058 2.2641374461 3.3351958707 1.2823225415 4.8638281565 2.7148137121 
0.57135256639 3.6170090169 3.4032350308 4.4439839856 3.4721623268 3.5977035001 3.1826498995 4.4197170992 4.0317796253 
3.0349772936 3.5093555478 3.0501805463 -0.30927673462 3.6408731063 3.1872778434 3.1452329218 3.1232659546 3.6388642372 
3.5440776127 4.1450427494 3.6266957254 3.4753282623 1.4814674101 2.1346949698 -0.0023152049542 3.2215097169 3.5740105786 
4.0909949487 4.0229750783 7.5113821154 -3.4873079395 1.1295745518 4.7604931381 -1.9292578649 1.3432893721 0.31216502027 
-1.3585307213 -0.29926758099 0.49540669088 1.6777973109 0.62892340593 0.28359209957 0.13350132332 -1.5572305752 -0.46379807689 
3.115306511 2.3799984536 2.400200214 2.3896092002 5.1224110451 3.6306869059 2.6384436068 3.6733644217 2.844124788 
2.1064302008 0.67287352481 1.7120672447 2.2438252174 3.0016901221 4.2564719912 3.6654231706 0.81447874296 1.7006355166 
-1.0530310845 2.4008786345 1.7567827196 -2.0458461984 0.71043471023 -2.1134106007 0.79865162245 -0.092245625193 -0.84731544707 
-2.9495834828 -0.3385960959 2.7235046982 1.6602020925 1.5321936961 1.6625142182 0.93061269394 0.69919341257 0.1286671532 
0.85245813164 1.8139702141 -1.1105516195 -1.0746410946 1.6944803154 0.77618112218 1.7198494334 2.0166234207 4.5126254776 
3.924265378 1.0370913198 3.4493800936 1.1739930276 2.2285793927 -1.9730129806 0.7970163695 1.8402285169 5.5749607377 
-5.9363544059 6.3114013689 8.549064626 4.8883804891 7.2856303716 6.6878773005 -4.0303967856 -3.0489959854 -4.7300566543 
-4.3266234967 -1.9292968474 8.5064587364 5.3093426304 8.1341030626 -6.1677978166 -4.7465762843 0.44598742716 -0.3657443241 
-2.8659971519 -6.1245974861 -3.2387601551 -2.8748080997 -2.6908085194 -8.1902811868 -5.4744542111 -5.4724988186 4.9089169969 
-1.3966032552 6.7736601768 6.0521520163 -5.9571186658 0.58651669529 -0.39904143722 2.9084871976 -1.9414386462 -6.5680391517 
-5.6356724418 -9.9590910514 0.87795375355 -9.9221232256 -5.8702002525 5.7608129343 6.604080713 -0.43811676336 1.4843213067 
-1.1323829054 -7.1082062475 3.5931630903 -2.1497769068 -1.1131364785 -8.7893065952 -5.9885537899 8.7091707556 -8.7315961652 
1.56805544 4.749790281 -0.58551528397 3.4236472915 1.0032465966 1.1145283815 1.7885487749 1.7094700347 1.8740558243 
1.6299160743 1.3754772926 1.2560827 -3.2677149392 0.050522201591 -0.72540133081 6.8925171786 4.6521724304 6.17538074 
3.2768343682 4.5607899677 2.6719120127 1.4723516839 2.3708330808 -3.2317453664 1.3451535974 4.382548354 4.8781092451 
3.8248574906 0.59536767259 2.4339129833 1.2048668656 1.5412916497 -1.2204124513 3.0789519411 2.220812563 3.4562465686 
-0.052018157057 -2.7266582848 -3.6778565511 -3.9076774371 -6.1438798746 -2.9301130068 -3.4419302198 -3.8518430835 -4.2726267884 
-8.0150895227 9.0421017187 -9.3546067514 -8.1420581938 -3.2836229101 -5.4541230027 -3.8146457761 -1.8054869535 -4.9856950807 
-2.3659946083 -5.0420667725 -5.2643280143 -5.185516719 -2.2312303009 3.8841060189 2.7033941078 1.0939027818 -2.3908674084 
1.0527028268 1.3917202979 7.9166617353 3.3591968255 7.8133627062 -3.3557686729 -4.4269053809 -5.2047880499 0.40825644116 
-5.8731532093 3.6700547658 -5.1333241724 -5.9405116197 -4.0606259235 -4.7574385508 -5.1341786918 -4.1489422624 5.5471862211 
-4.2218378236 -2.6341095182 -3.590141073 -1.7582503402 -1.6712345507 0.21380741148 2.0049904283 0.95120831897 0.42595275376 
0.41487405879 -3.0709466612 -2.2879762284 -0.028638948233 -2.7158921352 3.2166279451 -2.000343289 -0.072405191732 -0.51368079887 
0.049272409552 -1.1875226837 -0.21775419748 -0.96382045281 -2.5386026539 -1.0241417874 -0.7692273558 -1.1872663125 5.0607650233 
2.5474067061 3.5382536985 3.0677487047 3.5013100017 1.0648764906 -6.4664117579 -5.3103984049 -6.5705599496 4.5009075145 
1.188975897 3.8847077261 4.5241917476 1.9254353074 4.5458709934 0.7313569889 3.6495223124 -0.49264067654 1.8028877034 
2.8616640543 4.2767875925 3.3961604492 -2.6731090911 9.0663934325 -2.9710951255 -9.3966464363 6.5844338711 4.62112557 
-9.9734433749 -8.6399570673 -6.5015813907 -5.5118971548 6.6482699096 6.3871614935 -9.4858647757 4.6639842508 5.3581251994 
2.1686517535 4.4604558943 9.0022953801 -6.945046607 -6.3970604546 -6.3226260935 -6.8278014119 -7.6919960407 -8.5474420903 
9.6427344911 1.6070441047 0.24139983157 -2.4523726378 1.8074036115 2.9547451412 0.30356595439 2.5526264805 0.57519903101 
-2.3286303225 1.570689102 0.72609366928 6.281218995 3.8310280368 0.97711239475 8.860391596 1.8632928731 1.9579210686 
0.0043076976637 -7.0986437531 8.7153742507 -7.4978237249 -7.0665646882 1.955066644 -2.0263777417 7.5094105515 5.6251224944 
-9.4738962344 -5.3031433773 -4.0813917531 -7.4061975614 -1.6062874385 -5.2957766603 5.7009527601 4.9911789735 8.0299156181 
5.0784234259 0.81607497233 7.0482374383 -7.0995838713 -1.8912419635 6.8492923483 2.9423966792 5.8873640671 7.9113820037 
-5.175691323 6.6345140924 -0.023838739127 -2.7639636865 -2.4358041025 6.1426675441 8.9829312549 -7.0977102745 0.36183673401 
6.070413747 1.5537454153 1.669899639 6.3414906825 0.47557590566 -6.1506551797 6.0779844165 7.0818043665 8.7586385482 
-0.79909567949 5.3845605725 -2.8871030919 1.8178024372 6.403590151 0.30632810919 -9.8688466794 6.6355245958 -8.2996672861 
-7.872468081 -3.7202095286 -5.5715748494 -7.2343076695 2.3495046319 2.6184167668 1.2090745836 -1.0899517882 -1.0276770311 
-0.018395803507 3.7404961101 2.1641787258 2.6634083304 -0.24020318483 -0.86083443567 -0.82426999241 -1.7829160371 1.7839959924 
-0.22975511042 -1.024254081 -1.2553470351 4.697374227 0.92115184288 1.1429440824 0.93395457623 2.8710384132 3.9151594303 
4.705188228 4.430215247 2.9834112266 5.3171560534 0.089031120817 3.9807322555 2.8270765484 -2.5272589916 -2.8525153574 
-2.8408099679 2.6256666966 3.4635708063 -1.7840175813 3.4554769272 0.28497253323 -1.5768726956 -1.2832507793 -2.1201881862 
-2.4183729522 0.1155003215 0.75639412112 0.6865495032 4.4559781108 4.3449158249 4.7677040125 4.6768820666 -2.6302437758 
0.69420275295 -0.033392455361 1.9222379763 1.6742881074 2.026852014 1.0033549304 2.032809126 0.059666849322 1.4698533913 
-0.53868773101 -0.40680601901 0.036092212207 3.5241835147 2.2620016619 2.0083674563 7.531485257 -8.2358275362 -7.3667328948 
-8.6428242998 5.0922140562 -3.4008508279 6.2208022999 3.133905488 -3.3034179289 7.7674584257 7.7371514797 8.8930655851 
1.0349423957 1.2381835048 0.89963812591 0.67961885126 1.8800436899 0.51990577424 1.1974240581 0.62108520168 0.74128460985 
1.2774565617 0.90408251008 1.0856305433 1.1250458122 0.75002900371 1.0895287128 1.0956323211 2.3851172133 -2.6069133915 
5.5389557199 -2.6329582375 -6.8072393082 -0.7814712875 -5.0744117751 -0.44447498289 -4.79552648 -3.417216305 0.18019686095 
-4.4496829838 -2.1593764101 1.6443267593 0.83575372443 1.7234826944 0.15199847751 -2.9418426522 -3.5170033851 -3.3563292133 
0.94590562038 1.522071901 0.41059546096 0.16048828278 -4.8625580734 -0.68035213235 1.0841262007 -1.3094719193 -1.135432327 
0.9006463231 0.20684865858 0.35741383623 -0.76273509062 -0.67973541569 0.78149665937 3.3393836803 -2.3977511693 -1.2903312421 
0.609289196 -2.5295918328 -7.2549519532 -1.9569374483 0.54738367141 0.4148834148 9.6876960491 0.095137585431 -5.4076752202 
1.3859879135 -0.013035747447 -0.49577199837 0.089318363835 2.4319081905 -7.0739077417 3.1758257621 -1.1862863697 -5.3334679328 
-0.049982130882 -1.7012732333 1.365424235 2.2538741974 -1.0889993858 4.2307266134 -2.060236646 -1.9692570284 -9.0594729725 
7.4193306815 -1.0636079792 -7.5562626665 -3.7087973347 3.416279596 2.850276292 2.2933165497 -9.7019516915 -4.5446881329 
-5.4839472934 -5.7143510687 4.2111154782 -6.2213835087 -8.6834176143 6.5675428038 5.3057610653 0.29922186033 -0.67952533158 
0.31601416376 -6.9440874579 -7.8750149273 -9.0727514766 9.3417773314 -2.5713427819 -6.9621474546 5.8625256082 9.668434644 
-1.680635358 -7.1983105132 -6.4673425037 -5.6902682244 -2.0341358498 1.4092465703 1.0287263676 4.1842492479 4.2441753382 
-0.074899510824 3.6744812622 3.9282737676 -0.81206047073 0.93093979824 2.9312953673 -7.753489745 -8.6782785289 -8.0933052025 
-9.4293752215 -8.5544927032 -6.4194168266 4.0431185338 2.9104616069 -0.72261570974 -1.3971646846 -8.6433644277 -2.6100348417 
2.8476733902 5.6910334362 1.8613913531 2.4906168733 5.0424534874 4.1666625517 2.4514676089 2.0170486979 -0.78922107898 
2.6343287101 -3.2367281831 2.9716509822 -3.1182186007 -7.6009503682 -8.0837537981 -5.8873004744 -6.6290505117 -8.5185102788 
-5.1522273566 -5.3216134226 -5.9095672178 -5.6388277058 5.4953889541 -8.7155311364 -2.581745939 -7.0615897435 -7.3768948465 
-7.5958574352 -7.3080819355 -0.53556267848 -9.1816903982 -8.3174789741 -5.9979439627 -6.0901341914 -6.4784176664 -6.2697860296 
-7.6237865345 -7.7038194768 -6.9741718532 -8.0407834161 -2.768635861 -5.9865127784 -7.2788201404 -3.044422589 -6.0658142515 
-5.2511474726 -5.340419943 -7.869993876 -6.1629908258 -7.317016399 -7.2348578616 -6.563735891 -7.3577384296 -6.2772044078 
-7.0708006707 -5.9287075613 -9.4083132471 4.4058586808 -1.5038198344 -1.1728199241 -9.5669798183 -6.0996811229 3.3548671939 
-9.3096836416 -9.3825150071 0.87306973042 5.4153889907 -6.3766000074 -6.3971690756 -8.1723539987 -9.7917613966 -6.5625499283 
-7.814227254 -8.77168466 -8.6657317185 -8.0431232244 -8.3711897601 -9.7962570418 -9.9538916954 -8.5955878511 -6.9480281763 
-7.8695860533 -5.7994260391 -7.0080398778 -6.5940085672 2.1541228229 -3.2869109794 -7.1490875619 -6.5692250225 -7.0244459639 
-7.9557394376 -7.6803602477 -7.4259061457 -8.2601981702 -7.6497866899 -5.15193886 -9.0895496469 -8.4192492422 -9.7767429392 
-8.881440931 -8.9531829219 -9.8422236899 -9.5643805662 -9.5434319582 -9.8494868419 -9.2438826217 -8.8972830053 -8.7498914617 
-8.8866836404 -8.8223116293 -8.9602308605 -8.8664505255 -8.306467273 -8.1610046016 -8.6934315967 -9.7425196118 -6.8591256096 
-6.3841966966 -6.980585267 -8.874430678 -7.4633474389 -7.375481144 -6.3548357256 -3.7732401905 -8.8859019028 -8.5036674869 
-7.2567498439 -6.3103106529 -6.7166480705 1.7008190173 -8.3715638015 -6.604935652 -8.7452619733 -6.8911676599 -5.8446914087 
-8.3544235435 -6.4856613687 2.2235378123 -8.5755439598 -8.3755256685 0.18814808085 -9.3806909869 -8.3472916006 -8.080905344 
-8.5314788438 -4.8862536908 -9.6908056016 -6.5890078519 -3.9305696565 -5.8686778946 -6.7747414018 -4.9316135705 -3.4984042807 
-8.2719078581 -3.5333118518 -2.0684984404 0.87328157826 4.0018946072 0.95145375306 -2.6704225282 -8.3369331777 -8.3142195167 
-8.9652504672 -7.7032217902 1.4322096646 -4.3858255612 5.5878417889 -7.5453840339 6.9274649436 6.0745774878 6.1186937011 
-6.1157046288 5.2289404115 8.0749217893 -7.6808869342 -2.2564229305 3.3519487358 -5.657028117 -1.3599124502 4.6642212179 
-0.28131418792 -3.0343018414 -2.6884476594 4.7249414013 6.3269716009 -5.656675674 -5.7365406795 4.0053507051 9.9190745234 
7.4091904622 -4.1438581912 -1.4484321668 -4.619528678 -3.9271014398 -2.1061894325 1.8331880075 -6.0765352015 -7.0986125169 
-6.9698455888 -0.91278493958 -3.3502189287 -8.7086938113 -5.020609829 -8.9809582511 -8.8359936818 -7.9974514895 -9.1146852496 
-8.2842437953 -9.8279562203 -6.5403229052 -6.5994153442 -7.3092930438 -6.3080959485 -8.4693289757 -6.1252869037 -9.7454491529 
-6.7972042762 -8.5157044859 -9.0242048852 -9.6119245665 -9.1800126428 -9.6258625583 -9.5092615074 -8.1904841461 -8.8321545936 
-8.4510808816 -8.143130816 -9.2842167334 -9.1424595906 -5.3968178621 -9.3839816317 -9.2836537921 -7.9056463392 -8.7253188885 
-8.0484569622 -7.6930722111 -6.9473556887 5.0518044041 -5.6591105905 -8.1072337413 -0.41107529997 -0.3151961205 -0.33125919628 
1.2648828086 -9.3087367109 -8.1136953256 7.7093664622 -7.2285643171 -7.7437678071 -8.11246941 -7.6845363214 -7.700073169 
-8.8879775976 -7.4825623365 -8.03915979 -8.2769414715 -8.1834625304 -9.6210562621 -7.9069746137 -8.4898880104 -8.1151777566 
-7.9451701593 -8.5754190416 -3.5468367757 3.5135615237 -8.8142814731 -2.5306476996 -0.63324129009 8.8155001667 2.8636778631 
-6.8453823142 7.2315901413 -9.392598138 -6.281367685 6.4863326015 7.9675740278 2.4531396378 -9.4409855391 0.6264570644 
-4.7700947337 -7.6378769351 -9.7532299504 -9.4434430739 -7.5690570535 1.0108005002 -5.6737711 -5.7044211511 -9.0446086476 
-2.3309619222 -5.4498084732 -5.9106562099 -3.5525242431 -8.4777526326 -9.7825179111 -8.8514636247 -0.10496546989 -7.6152321973 
-5.4280551378 -3.1449197967 -8.0308279047 -6.9452242962 -4.63367741 -6.9144171603 -3.7415798347 -7.4555880399 -6.9433706867 
-8.5232741428 -5.2528329169 -6.0107961086 -8.7969738364 -7.4186054442 -8.6585694678 -6.3861304907 9.5573853925 8.7107443095 
-9.7870076561 -2.3213853373 -6.2884448407 -8.9304876644 -5.4901333493 -8.4613339472 -8.4258990752 -6.6955455197 1.0489551524 
-4.9611454004 -8.6498783128 -7.1146074562 -6.4680168315 -6.0440286284 -4.6309113855 -7.0319887694 -9.6762552324 -9.8808177747 
-6.1167821228 -9.1709237355 -9.302171532 -9.863300128 -4.2423104328 -9.1397529304 -7.4963919174 -2.7813413503 -9.8851009104 
-9.9860450397 3.3853764092 -9.8120632293 5.6701840903 -1.1109136712 -5.099310058 9.46295747 -4.3361143504 7.6266940666 
-9.8312410009 -7.3635765397 5.5030461117 4.870545607 -8.9785920829 -8.7664002854 -7.9803384119 -9.0357210033 -8.5488475454 
4.5012982957 1.4357284169 8.0165145129 -6.5712697555 -8.3517226541 -8.9294548264 -7.3838078873 3.3100716897 -8.1047540396 
-8.7670067574 -5.8004973434 -6.7250641668 -8.748203401 -0.29965731618 7.5193021668 -8.7612701498 -8.9044475605 -5.8749341345 
-8.208692327 -4.9550508346 -4.6926579721 -6.3024679977 -1.3159197106 -7.1104833574 0.64901983961 -9.4005274314 -8.7078474267 
-6.514060515 6.8782543404 6.0227722428 6.2327772084 -3.0407876659 -0.68197577888 -2.9048970821 -7.8466791078 -1.8320797062 
-3.0351347283 -1.1295509401 0.53764848942 -4.3454589022 -7.8900833677 -5.1439173795 -8.9424844349 6.3680752328 1.2426029668 
-1.059435324 9.0024093718 -0.66531518312 -4.9273369293 -1.7092151499 1.4011932354 -3.0139554761 -0.21865586642 3.130825785 
1.7134158032 9.4160665128 9.397324732 9.6335933475 9.4250718999 8.2686255361 -0.54155974009 9.4232851009 8.8561552266 
9.6647183975 8.7011549309 9.8662317721 9.7886972084 7.7733351184 4.2522640738 6.8154511577 7.6484315361 9.4688393741 
7.0363586335 8.981918972 9.7349787023 6.9773939155 9.633876619 6.9682017769 9.3978842952 6.9790333881 9.6301136288 
7.0545041242 6.9674189277 5.8750146068 6.3718390759 6.9706337153 8.5845234265 6.5891074168 5.5631413936 8.9264234387 
5.7634229273 5.488502756 4.7388314296 6.4246976589 5.1159622809 7.7930952323 7.1170998457 5.5755774846 8.621792688 
7.5642700388 7.5957556166 6.1501825209 7.5223824117 6.3899410581 6.7439473935 7.9747212502 6.427943936 7.5111254394 
7.6612839617 4.7512005665 8.1418140165 3.6142096146 8.5605346405 9.6872715376 8.106916638 9.3370736901 4.1008773216 
8.1779509542 8.9124582428 8.878319717 -2.9239551764 2.7348591438 6.3484625679 9.3649348071 8.2591955138 8.5065562142 
9.5858925494 8.5989426462 9.9904741102 9.1725148241 9.221486776 9.5663383577 9.5580090517 9.5463177819 8.1444226765 
9.3466315971 9.6801259059 9.6904016973 9.6423717119 9.4081688519 7.6637966266 8.8322773195 8.8722091182 8.8732632069 
9.5636831506 8.5185275667 9.6278549124 8.6904561416 8.7378877669 9.7409041719 8.8697151922 7.2353567035 4.7126290563 
5.5278410186 6.6432570136 3.6266131372 5.8386958078 4.939078254 4.8917354452 6.367624213 8.464728601 7.9469042977 
7.7040261865 7.5269055585 7.5858584037 5.338114646 4.1715309162 5.7303437327 7.8186015961 5.5717019656 7.9938969246 
8.6194949235 7.9898896081 6.3131450415 9.3915789369 7.3047849177 8.3526817397 8.2879246754 6.1344826334 7.8746327344 
6.4717628228 8.7228473241 8.7073699042 7.1949899423 8.9152778684 9.8897710549 9.996660518 8.8363572424 9.9245244291 
9.1567296778 8.7636306723 7.7131842699 7.5969195997 8.5888556096 9.6898958101 9.3966476066 5.7447089284 9.9994066835 
9.4841584391 9.9737915943 9.3667602104 9.0387906816 9.6939882522 9.4897097721 8.792452049 9.9405639807 9.6710870529 
9.9970122427 9.9582661661 9.8512078036 8.8936779794 9.6089743685 9.810594185 9.8250362967 9.7840388696 9.4725699318 
9.636255535 7.9672529182 9.5394798112 9.2900094951 8.2767423644 9.6586443717 8.8815688818 9.0868541831 9.7175837047 
8.6789106292 9.928400868 9.5847531723 9.1509106511 9.8318342513 9.9750289646 9.9216085986 9.9773803412 9.8650990445 
8.4070976162 9.7218577548 9.8767232627 9.5903843198 9.7423267138 9.8304940601 9.6990742097 9.8669061789 9.6947641569 