# vtk DataFile Version 5.1
vtk output
ASCII
DATASET POLYDATA
POINTS 1244 float
-3.00006 -3.862 -3.31034 -2.84467 -3.95894 13.8709 -4.57593 13.6137 -4.03702 
-3.2275 13.7285 13.6805 13.3928 -3.72025 -2.7098 12.3033 -4.71892 13.6544 
12.1797 11.4751 -2.83005 12.2132 14.9093 12.1929 -3.32914 -3.30224 -1.42667 
-3.55316 -3.23415 0.517511 -2.93969 -3.13982 2.5089 -2.95336 -3.07744 4.46676 
-2.58763 -2.57904 6.14211 -2.55019 -2.43335 8.20859 -2.34503 -2.59245 9.75209 
-2.54522 -3.0626 10.7434 -2.69911 -3.71574 12.0754 -2.49305 -2.32993 -2.60788 
-2.32193 -1.50506 -2.43023 -1.99629 -0.0267159 -2.06087 -2.30138 1.52938 -2.30262 
-2.6151 3.71396 -2.53209 -2.87315 5.91648 -3.66617 -3.38875 8.01577 -3.56535 
-4.16351 9.96584 -3.39255 -4.88314 11.901 -4.06854 -4.24718 14.5015 -2.34736 
-3.82051 15.2476 -0.168002 -5.03565 13.1285 1.65926 -6.52463 10.8947 3.20043 
-7.26846 7.8851 4.38408 -6.89596 10.6358 6.47799 -5.47464 12.9786 7.75661 
-4.26415 14.6129 9.58278 -3.53922 14.4734 11.8421 -3.43123 -2.27239 13.2466 
-3.12652 -0.596295 12.2652 -2.93612 0.0345088 11.5223 -2.68373 1.983 10.9921 
-2.95292 4.08285 11.2189 -2.79928 6.12286 11.3687 -2.79563 8.49848 11.9708 
-3.13505 9.62544 12.1325 -3.03332 11.8177 12.9265 13.7654 -4.3585 -1.3394 
14.3472 -4.98061 0.118936 11.6237 -5.41026 0.979186 9.01855 -6.1833 1.19453 
8.67282 -6.40267 3.36834 8.76614 -6.70323 5.76475 10.3415 -6.58775 7.81673 
11.7086 -5.90308 9.80418 12.7411 -5.57907 11.8653 12.3478 -2.18855 -2.44103 
11.58 -0.831926 -2.29545 11.3294 0.423694 -2.20749 10.6565 1.7667 -2.0043 
10.8935 3.67704 -2.29905 11.3572 5.48938 -2.42515 11.385 6.64091 -2.66188 
12.4246 9.24899 -3.41603 12.8862 10.8599 -5.12494 15.2361 12.5526 1.019 
10.0159 9.80317 0.194126 6.70742 6.83886 0.469105 4.87759 5.18613 3.9543 
9.48166 2.99458 5.27448 5.32022 7.14711 3.94708 4.73889 5.34762 7.22883 
7.51317 9.93021 8.29293 13.7829 15.3441 10.4943 12.7411 -2.57354 12.5136 
12.401 -0.348475 11.5342 11.8183 0.907929 11.1341 11.8144 3.4976 10.6852 
11.0664 5.85486 10.9742 10.688 8.2065 10.8561 11.0583 10.3593 10.9656 
11.3301 11.7243 11.0692 11.8962 13.1757 11.6192 -1.43391 -3.18601 -3.57718 
-0.0311009 -3.2684 -4.35841 1.89807 -2.29706 -3.44463 3.67509 -3.42908 -2.90383 
5.86799 -3.22626 -2.49499 8.19311 -3.11644 -2.33491 9.4623 -2.94001 -2.09074 
10.823 -2.96868 -2.34319 11.6637 -3.58071 -2.5855 -1.17266 -4.38681 14.4458 
0.874914 -3.65047 14.8257 3.71614 -4.05701 13.4231 6.81691 -3.32179 13.5176 
4.93248 -7.85417 12.5177 3.85518 -7.28664 9.56451 6.22413 -6.62916 11.4775 
7.49187 -4.90378 14.3279 10.2697 -4.77437 14.6031 -2.79544 14.0337 -4.25876 
-1.12499 12.4552 -4.90737 1.09639 11.8732 -4.29678 2.98592 10.7963 -5.05163 
5.15642 10.6696 -5.13145 7.09354 11.7831 -5.19297 8.72208 13.2404 -4.29667 
10.6468 14.3631 -3.80804 12.6188 14.6162 -3.48992 -0.904628 13.898 13.3175 
1.88702 12.9249 13.8376 4.49616 11.5273 13.4491 4.46006 8.08313 14.8736 
5.78726 10.329 15.4159 5.70199 7.56563 14.5133 6.52335 9.10017 9.72711 
7.50454 14.9633 12.4057 9.76777 14.4368 13.3485 -2.52725 -1.53662 4.6204 
-2.89625 -1.32118 0.860886 -2.14842 5.5627 -1.02385 1.42182 10.5087 3.97484 
-1.63163 8.75867 -0.65326 -0.85973 6.17212 8.00568 -1.31905 8.78902 9.78098 
0.502344 9.337 3.24361 -2.47071 -1.0664 8.26985 -2.89346 2.61525 10.1499 
-2.55315 2.61454 -0.844174 1.31738 6.34848 6.27164 0.62258 2.76551 4.3491 
-0.518143 2.61035 5.44757 -2.65012 -1.09183 9.94073 -2.4139 -1.54556 6.56046 
-2.93639 -2.18102 3.08738 -2.72585 -1.10887 -0.974648 -2.20214 4.5828 9.37232 
-2.63018 4.99309 10.7511 -2.28608 6.58463 10.4832 1.6356 5.72131 5.26804 
0.344378 8.26575 7.40775 -0.848119 10.0859 8.92775 -1.43206 12.5288 7.43457 
-4.011 6.28396 5.40124 -2.51299 4.45111 0.613232 -2.70593 4.96342 -2.67121 
0.932734 6.64375 2.96645 -0.662829 7.29273 0.212197 -0.437578 8.71253 1.04751 
-3.90253 10.8362 4.38541 -1.65008 13.1087 1.50897 -1.40951 10.6259 0.370955 
0.693047 4.41946 2.93293 -2.32949 4.32566 3.34737 -2.97315 3.89777 5.06082 
-0.65547 7.5663 3.06199 -2.20353 7.13002 2.79536 -1.81185 3.34645 1.68041 
-1.62442 2.30318 1.30412 -2.22432 0.990179 0.189423 -1.59487 0.891881 1.6485 
-1.86449 0.761203 3.52342 -2.2903 4.55753 7.70143 -1.89841 2.51818 7.75857 
-1.43014 0.701382 6.19913 -1.95933 0.893637 7.53134 -2.68262 1.11228 9.20394 
1.09259 2.45283 3.7671 -1.92811 4.81106 4.96092 -0.902974 3.79692 6.92928 
-2.51123 -0.931695 9.0063 -2.4226 -1.27603 7.30518 -2.52181 -1.69684 5.61605 
-2.7575 -1.92503 4.11363 -3.23131 -2.54906 1.51553 -2.69455 -0.717113 0.0954454 
-2.48001 3.53693 9.96783 -2.7177 3.75774 10.4704 -2.43213 4.76667 9.86388 
-1.78512 5.33301 7.79863 -1.61933 5.60172 8.8002 -1.13801 6.21956 8.77233 
0.0321308 6.94839 7.15751 -1.37187 6.76769 9.71279 -1.18054 8.07922 9.49473 
-0.484884 8.11237 8.51858 -0.620709 8.64141 8.74862 0.602257 7.1149 6.95822 
2.49489 7.4907 3.22621 1.37806 8.98114 5.67375 -1.0394 9.25473 9.50019 
-1.50523 10.382 9.91146 0.0638738 11.7057 5.1165 -2.73567 10.0298 7.16045 
-3.92859 12.3163 5.79058 -0.70411 11.2881 8.74753 0.342794 10.1407 7.30391 
-0.177399 9.11579 8.10529 -2.52031 7.05307 11.2041 -2.37681 5.56049 10.3742 
-2.54147 3.65824 -0.499958 -2.52709 4.00832 -1.04918 -2.58689 5.05573 1.5946 
-2.68445 4.78039 -0.381812 -2.27431 5.46122 -1.80672 -0.0881525 6.27436 1.47949 
-0.968486 6.95765 0.199252 0.0540608 7.12757 1.79302 0.983702 8.03671 3.20603 
0.195787 7.9715 1.84213 0.557041 9.05076 2.31558 -0.571071 7.96259 0.680036 
-1.30813 7.71438 -0.60027 -1.08681 8.46644 -0.148184 -0.0127973 10.8887 4.71841 
-0.126452 11.8633 3.00541 -1.11928 11.8662 3.39707 -1.32396 9.45469 -0.0329603 
-1.7401 10.4478 -0.24347 -0.66649 10.0318 1.29789 -0.84725 9.4525 0.586834 
-0.00343012 9.56 1.90564 -1.71799 7.23753 -1.48465 -2.07662 6.57413 -2.0114 
-2.75747 6.7954 3.9814 -0.721553 8.78224 3.28075 1.5076 7.34346 5.76855 
-0.751872 4.91834 5.25693 -3.30907 6.41024 3.67186 0.262172 8.1398 6.14706 
1.34892 5.52561 5.49191 0.366126 5.26237 3.56892 -2.31965 6.02419 0.319839 
-0.405609 2.87889 6.42603 0.17868 7.81251 4.11906 2.20944 5.41881 4.20475 
0.0250409 4.55 5.33145 3.30917 7.76967 5.50324 -2.49596 4.61784 4.32409 
2.09113 5.64289 3.93681 -1.71944 7.12597 0.445885 -0.0629322 8.05163 3.55793 
-1.03593 6.27554 7.15969 -2.64081 8.33432 5.87729 0.901956 7.7063 6.46602 
-0.00239925 3.67936 6.2038 -2.51799 5.46046 2.64234 -2.07965 3.51713 1.10686 
-1.97408 3.1446 0.312706 -1.87418 2.64394 -0.134043 -1.14085 2.82598 1.72795 
-0.305916 3.72569 3.47449 -0.47322 2.58567 2.97906 -2.22954 1.9543 -0.738657 
-2.27462 1.00906 -0.777773 -2.34233 0.397784 -0.455894 -2.3999 -0.165799 0.728744 
-1.37464 0.368415 2.69284 -1.63599 1.60197 2.85101 -2.47052 -1.44237 2.35401 
-2.42894 -0.0729814 1.41461 -3.14513 -1.91957 2.03294 -2.50705 -0.769038 3.71709 
-2.08658 -0.058499 4.31315 -1.98759 1.21563 1.04983 -1.09371 1.94428 2.10594 
-1.91043 1.77332 0.501794 -1.9198 5.48865 6.82937 -2.25123 4.64814 8.62679 
-1.81146 3.46713 7.39938 -2.20641 3.31234 8.02743 -1.21248 2.64097 6.62299 
-2.19887 3.55892 9.04222 -2.3934 2.64381 8.91992 -0.85408 1.90328 5.79768 
-1.25954 1.92069 6.74672 -1.75385 0.852426 6.85292 -2.08901 -0.659199 5.63386 
-2.13066 -0.27767 6.4297 -2.29182 -0.256222 7.09925 -2.37844 -0.13039 7.98004 
-2.65946 1.81092 9.71217 -2.75844 0.847962 9.95834 -2.41565 0.171286 8.79398 
-2.74281 -0.0384537 9.80382 -2.38819 0.962247 8.24825 -2.23371 1.82868 8.64875 
-1.9118 1.85796 7.57228 -1.7533 0.169416 5.40986 -0.735705 1.52634 5.24282 
0.392322 2.55693 4.48474 -1.43291 0.825492 4.85805 0.949659 4.55463 2.17172 
-1.46118 3.65831 6.56095 -2.18232 4.60099 6.82848 -2.14096 5.83054 5.49438 
-2.21795 5.29889 4.9047 -1.70993 5.33869 -0.170422 0.777384 5.00632 5.58265 
-1.2601 5.75851 4.46157 1.56039 3.61551 6.05742 -2.21307 5.77708 6.33505 
-2.933 5.76491 3.60211 -0.669488 3.66303 -0.172814 0.914957 2.68458 0.612776 
-1.08049 3.69217 5.74973 7.8568 -2.17208 4.7104 10.5605 -0.995386 1.23298 
9.407 6.09849 0.925383 11.7927 10.377 3.49975 9.84432 8.43378 -0.894266 
8.52436 5.6709 7.74622 10.3677 9.11853 9.42804 10.6997 11.8107 6.11585 
9.02337 -0.794653 7.39968 12.0539 2.1073 10.6209 10.2335 2.68223 -0.968714 
7.74576 7.38181 2.90607 8.67209 3.08744 3.05167 7.85147 3.97913 7.20477 
10.781 -1.67786 9.99809 8.30698 -1.80363 6.3325 8.25596 -2.39559 2.60611 
10.7629 -0.417906 0.00782602 10.7747 4.9513 9.98353 10.3858 6.50394 10.4147 
9.34627 6.91981 8.78025 7.37964 7.89071 5.12948 10.1845 8.95878 7.06543 
11.077 10.2164 8.60955 9.88551 9.9377 8.84863 10.5671 10.2844 7.38467 
9.78009 4.3324 -0.0339758 10.5751 5.35076 -1.26641 8.66822 6.9194 2.70108 
9.05643 7.51674 0.403262 8.22276 9.03354 1.10423 6.21217 9.8037 2.41287 
6.79056 9.96399 2.07794 10.487 11.4342 0.846141 10.0747 6.45453 2.22758 
7.4781 9.2576 6.18084 9.81125 5.0701 4.3735 12.5651 5.74709 7.47843 
8.88586 4.74771 5.0303 9.22166 3.99923 1.56426 9.36124 2.44322 0.862206 
10.1511 1.01783 0.0259293 9.06285 0.826391 1.92629 8.38039 -0.147605 3.3278 
8.7653 2.89985 6.76447 11.3786 1.65987 8.84955 7.64777 0.878029 5.87592 
8.44046 1.39892 7.08442 10.9441 -0.321931 9.65666 8.59499 1.71025 4.0793 
8.6284 5.65722 6.57437 7.89649 4.91073 4.91679 9.57488 -0.909453 8.20452 
8.70967 -0.973223 6.92963 7.98759 -2.06276 5.73134 8.00844 -1.85794 3.81492 
9.38915 -0.430102 1.85772 10.5912 -0.486497 0.712206 11.9511 3.17684 9.78518 
11.1627 4.56583 10.438 10.2319 5.88097 10.0816 9.23953 5.22338 8.75643 
9.32849 5.98323 9.01962 8.72873 6.48351 8.01933 8.0077 6.73855 6.62597 
8.34937 7.32235 7.29187 10.0439 8.14547 9.76041 9.45128 7.72858 8.77564 
10.0223 8.24346 8.68032 9.25608 7.77787 7.86545 6.74846 9.38602 2.64706 
9.67586 10.2142 1.88939 10.3543 9.13955 8.85787 11.0274 10.6158 9.12705 
11.5043 6.62209 8.06564 5.6597 8.35742 7.11361 8.15393 3.89092 6.78096 
13.0617 14.2568 6.72552 11.7934 12.0734 3.97508 10.6275 9.38987 7.80141 
10.1045 7.6007 9.74224 9.81941 6.63819 9.5638 10.0756 3.75144 -0.789725 
10.3441 4.10141 -1.34558 9.67233 5.12984 0.214034 10.2158 4.87641 -0.98564 
[...]
CELL_DATA 2484
SCALARS scalars double
LOOKUP_TABLE default
-2.5327661828 -0.5285053488 0.056775855325 -1.1634940538 -0.19258974864 -0.48152918949 4.3770792901 2.7064943029 0.81691532325 
-8.5922255057 3.1693444446 2.0173027892 0.078013750461 -1.2393514779 0.21571032608 3.415601579 2.7862698362 3.0446289678 
4.603518971 2.6355807032 3.0827119675 2.0976397281 0.85807899659 -1.2017277129 2.2169673366 -0.026159035431 4.338734285 
-1.2847175215 -2.1765617509 4.3992854951 7.4780699991 6.6078022437 0.013246161011 -0.95007223552 2.0018105679 0.70363124965 
5.4661189292 6.447511881 3.3835411552 3.7844120042 2.1910324602 0.67733158118 0.51460546251 0.42647961703 -0.99528018645 
0.065003776338 -7.2729855655 0.63934918147 0.51489579658 0.90260827997 -2.9075930744 0.2121454021 1.3886250811 -1.6041520107 
2.6738854162 -2.5045233068 -4.3590934641 -1.7858474498 1.0492698664 -3.7160720218 -9.5621851129 -0.29878216886 5.8352847503 
-7.3560458506 -0.65727330032 -6.2798860336 -9.6274464145 -7.3984693862 -5.5823793092 -0.11296936137 -6.7595745099 -3.7430216749 
-0.29563733211 -4.5989895472 -1.54965074 -0.24553350904 1.4364859254 0.71814822748 -0.32428151223 -0.016221360538 -5.8875476468 
-0.3009216342 1.043936689 3.0459091756 -3.125392287 1.32572502 5.7547617502 1.1570504715 5.6707151602 0.99059507582 
1.0658484387 1.7687048851 1.2148899966 1.4411651585 0.28687368066 -1.9586124586 0.38329786457 -1.3287862857 -0.586241285 
-2.5208487878 7.1237036004 5.9756556906 4.7936269844 -0.59954068513 -2.9237540946 -0.72105590964 -2.6370597194 0.87449351436 
1.2964612249 -0.76588442792 6.1596480208 -0.60192563959 -0.54651725981 0.18610755067 -0.083246117977 0.71846240937 -2.5055793247 
-0.85023121513 -1.8924884135 -0.50478609844 -1.208163547 -1.5178167239 0.94456087192 1.0758115198 -7.9631122301 -7.7580505715 
-8.4339621508 -8.5867032818 -4.1758116507 -8.387388451 -6.2385277166 -8.8547998447 -2.3709371496 -1.7614863761 1.2132202659 
-2.1119346473 -2.5557614099 -2.4271068844 -3.5231450851 -4.2585244928 -2.7951366425 -2.5884567512 -6.4004101714 -2.4905324163 
-1.6294449779 -2.5284564263 -3.0200495288 -2.7755859287 -3.2616084282 -3.2474900991 -1.2287434902 -2.8069455252 -3.1167693648 
-3.9843079443 -2.554991512 -3.2397898558 -3.5770848145 2.107982883 6.4748395004 2.2352495473 6.2179645544 2.3146254476 
2.105611757 0.40833939816 -2.2307841958 -0.4303511178 -2.0493373546 -8.2314981184 5.4777713777 -4.931239599 0.79727414894 
-4.3654164686 2.9885810703 1.5352265876 -3.8760395274 8.8426912434 -6.2563107264 4.7363610963 -2.3672208929 -7.4905444351 
0.01822745157 -4.5187049299 2.4109526511 0.075552824786 3.6909666819 -3.2871683861 4.9276229266 9.4641396928 9.039074204 
8.1727650675 3.6867628055 -7.0744790172 -6.4725559833 3.5411977437 7.7167509501 -5.7591317054 4.8122075831 5.9827435291 
3.4925827361 -4.5376775054 -6.0583836934 7.0028872222 3.9978750911 7.5369721796 9.4812447284 -8.4381282192 6.6365325034 
8.3801658501 8.2749307588 8.1637837268 1.1066781483 2.8076172045 -3.2174173992 3.1421752535 -5.1333701005 -2.2152441309 
-4.6535637181 3.281353416 1.0425315314 4.0836680193 -7.0621684331 1.6170693478 0.53680010317 -3.6703909781 4.3583891064 
-0.048964283058 2.2602358761 3.9094706781 -9.7256994569 0.26341183755 3.7182914404 -3.5138816684 -4.1634239764 -3.6342683839 
-4.2343611981 -2.1621693696 -2.7945145944 -4.4284274994 -6.2652649622 3.4105328779 -1.6190002738 -0.69597113033 2.9951092321 
-7.8726009981 -3.9278800135 -6.9983428002 3.0582319 0.4538992345 -2.7300490955 0.49513512227 1.6375457525 2.6873459581 
4.0088847304 3.5387947094 1.3803892262 2.6545980922 2.0864451627 3.4957282518 0.88121823565 4.2393363605 2.6401342186 
1.4167839673 4.5592819973 3.1039731752 -0.21041869589 2.9439296167 3.9934822065 2.4537392559 3.1541111034 2.9633672985 
1.8539698972 3.5751669215 4.3061113335 8.2367192957 3.8428761833 4.0464529127 2.3741676497 3.0232192298 2.8401797353 
2.3861860726 0.34091816512 3.0178521244 2.6070314584 1.9505637077 -2.3387307328 2.3924684923 -2.3583792985 3.0420090472 
1.2342963764 4.6670806273 7.0116101504 3.7195082679 6.4412104509 7.0936071086 -2.0001107345 -1.4858599465 -1.4843705327 
-0.9065528363 0.89644710151 2.414986234 3.2506425752 2.3509920262 -3.8938483207 -0.23697276959 -0.54765199573 -0.4135982508 
2.3315784972 2.461902165 3.7814005509 3.5902227299 5.1158266419 3.8312063175 2.2477062413 3.7812695464 3.2268507735 
1.1634572741 0.77496502976 1.0410849411 1.8869218526 3.6484518171 4.3373531484 3.8368257979 1.9584321803 0.84161839082 
1.3782215196 0.73137150674 -1.2242262539 0.73114304908 -1.0762198438 0.24106505086 -1.1899810716 -0.0010213121624 0.75319355015 
-4.2028511392 0.15204706077 -1.5259440092 1.1961710946 0.025266891679 2.8566060757 -0.63553132247 -0.51683157953 -0.57784844968 
0.64843415898 1.5780484369 -0.30964883849 -0.55715413768 0.99090881803 0.64016736758 3.091751752 2.8750356187 3.0935134021 
3.977048974 4.1790461323 4.1166326065 2.9128664398 0.048675476951 2.3127343171 4.6625477319 4.3953559857 6.0214491837 
-6.4716270375 6.6424569084 7.4973698722 5.7463391186 5.9282342361 5.9833431792 -3.1178638779 -3.6763005295 -5.6687467944 
-4.6869228178 5.6585651587 6.833511768 6.1715463121 6.6084565186 -5.1632833056 -2.1888231765 1.5644910514 0.28960710536 
0.77271570816 -5.1774345771 -1.0485657088 0.88164391902 -2.5347193458 -7.774348634 -5.5966971684 -5.5927836636 4.6295697042 
-0.52834320403 6.1557212375 5.8825180847 -1.4822934518 1.2907759478 -0.71147534138 -5.1650978875 -2.1402413843 -6.7656612147 
-5.8747548986 -9.9995508357 1.135947791 -9.9757483966 -5.2526935739 5.0555555349 6.3243638319 -1.037274891 0.26701468768 
0.67911540809 -7.058745595 -1.796187737 0.80375296928 -5.5190454768 -8.5466147461 -6.2563832331 8.5110803048 -8.5731289112 
2.3076413296 4.4981349006 1.3104555139 1.9319519248 1.430693904 1.1234455051 1.4361723717 1.3868978423 1.6531216688 
1.3692087452 1.2156524433 1.4684331739 -3.1381395149 0.59150257625 -0.30825392794 6.8820712538 5.3162289177 5.9253393918 
5.3988908702 4.1185575051 3.2025305337 1.2638115599 2.3238083377 0.30784817497 1.0699382017 5.5628038256 1.6498215207 
5.1133270726 4.2639294581 1.5023082327 0.92371942904 1.3083710578 5.0655181544 3.070625936 1.7954075429 3.191764987 
-0.64414301153 -1.3540626365 -0.51394261758 0.03676516602 -1.1591871301 -3.3034936239 -7.3777840316 -7.4692067029 -5.2994594987 
-6.9417129288 9.0797494133 -9.1721278127 -6.8266995878 -6.5431869462 -1.087014554 -8.3901907952 -3.3597016985 -4.3903746063 
-3.8717375048 -4.3105144863 -5.4010926619 -5.4089012234 -0.98875718196 3.44456123 2.8739177407 0.86040283485 -1.9008854887 
0.87844593694 1.5430203195 7.7419230952 3.2034258059 7.703445602 -2.9996424861 -4.5511936179 -5.4353082326 0.541483903 
-6.1294371764 3.89080457 -5.4103283896 -5.5618570649 -3.41181231 -3.6944998662 -5.6910716564 -4.5283185771 5.6756152757 
-4.5535229969 -3.264602408 1.0469246705 -1.5490231271 -1.807986682 -0.36322146999 -1.4129663285 -1.4472566167 0.71377753691 
-0.038930899867 -2.0106099569 -1.4227658927 -1.3543718003 0.90993325448 4.5199589937 -0.601497272 -0.28329449507 -0.019111703875 
-0.056115480197 2.3229741873 -1.7045797076 3.3766614711 -1.7393689919 -1.0804717713 -2.2504264824 -0.34057318156 0.88172272606 
2.8068730782 3.8416065385 4.2527020562 4.1299701668 3.771415221 -6.5610259068 -5.6751310918 -6.7663394725 3.309704466 
3.918883825 3.5487939746 4.2641320982 4.1421457081 3.4744644212 3.7183526692 1.3395895306 -0.81441526054 1.7356384602 
2.7899739457 4.7096251306 3.4205204503 -3.4323637106 9.0044156126 -2.9340940642 -9.7875353555 6.6295833231 7.594728879 
-9.9885716904 -8.6678621612 -8.0915903861 -5.8061386091 6.8420077807 6.6365019624 -9.3984599407 4.1983361002 5.3077210625 
4.1514588268 5.7283102214 8.9791110146 -6.9634282177 -6.4897650398 -6.4135691105 -6.8275381745 -8.1753436122 -8.3146091598 
9.7026706733 3.0632975488 1.612285267 -2.010922671 -5.4593783981 3.6114537737 0.44249598541 2.8404613817 -0.90057438702 
1.4766100209 -1.6223155134 0.87129094205 5.7415906372 2.7677392829 0.77901892832 8.9321008827 1.830617566 1.89518397 
-1.0277838521 -7.1372175311 8.4727976779 -7.0826827756 -7.1205270461 1.9288042479 -1.8408000075 7.5982947935 6.2550835615 
-9.601082579 -5.9369075955 -2.4074499755 -1.5948480645 -1.164379904 -4.7435245967 5.2062099451 5.3038618521 7.5335117673 
5.1999027324 1.1342325164 6.657122749 -7.0654473335 -2.5094163189 6.8131427486 2.5975556189 5.8730431665 8.7486852217 
-5.5985739556 6.4664808483 0.0091964593064 -3.0375667709 -2.3299911384 6.4824496292 8.2955942843 -7.0440881098 0.27066459423 
5.5324765257 -0.45400686404 -0.19038289482 5.7714255042 0.62750815428 -5.9897672784 5.9279452539 7.0771129705 8.3776134443 
-1.6547651651 5.3222338069 -2.9748075944 1.9997849165 6.4433807139 0.076687933913 -9.4043334824 6.4618034824 -9.5653700595 
-8.3974885162 -3.495460581 -5.1855567426 -7.1266251567 3.0851606073 1.1164297459 0.052770419987 -0.59060445809 -0.54244920099 
0.19500271661 0.64991280589 -0.847722181 -0.037296373453 -1.9117725527 1.9279826195 2.2808939936 1.6619748783 -0.46248323614 
-1.8693629569 0.5363961497 0.016883084132 1.3414435118 2.2728276944 2.409725498 2.8588125349 3.825761205 3.0349510019 
4.777733363 4.9215113914 4.1611811763 4.9916441429 0.39552579822 3.000864061 2.9410137152 0.68491048317 -2.0660128587 
-2.3188319117 -1.094659358 3.961522578 -0.1255183132 4.0827923259 -2.8551597229 0.3118796217 0.26617709178 0.23859123761 
-0.8253857234 -2.339496327 -0.39827954235 0.08494244198 4.5345494473 0.67992061559 4.0401544915 3.8264613659 2.2621624004 
-2.3955219218 0.26623788529 -2.6112011349 1.550612813 2.0937219748 2.3637023694 2.0791457938 1.3596306083 1.3861078941 
1.2817855085 0.48651052856 1.3295625372 3.681793016 1.9505048897 2.8770725589 8.0792639517 -8.0698249159 -7.7635942329 
-8.4242855587 5.5756745375 -2.8793349681 0.022565885453 0.35709637806 -2.6228900133 7.1059580118 8.6130319177 8.8345777772 
2.3490599493 2.6410610481 0.84059406122 2.0712060443 0.99573312899 1.574432481 1.9875714281 1.4083159464 1.5683164498 
1.1563497321 0.90213249248 0.95454286241 1.1516538247 1.4149487566 0.4373918323 1.2369380165 3.6335316779 -2.8485485229 
-1.4663686637 -3.6951270606 -1.5385067582 -0.24752946395 -3.5567761693 -0.52415449201 -3.4265185538 -1.228211524 0.66044094669 
-4.6545041807 -1.3960303448 -0.16813332862 1.6201585858 0.32503132463 -4.3412144286 -1.5575989526 -1.9363433408 -2.1949178659 
0.80187339455 -0.54787347063 1.5993571244 -1.335204968 -2.7166313732 1.539465224 -7.4075670522 3.4523728401 0.16388516522 
0.082813897899 -1.2937118941 -0.28704652307 1.7665918744 -2.6749179207 -1.0474509529 0.80298386261 1.1166388909 -0.6800856211 
0.29703829188 -2.4333001917 -5.7829864329 1.0441911657 3.1405784882 2.1290914678 9.7034827784 -0.8716114764 -5.4518797613 
2.0396799051 0.74678753499 1.3079395047 1.461997098 3.6862376372 -7.5014477936 4.0658388645 0.0553293936 -6.476527543 
1.3377767401 -2.9013076452 2.7985372698 3.7179971492 1.6898516064 3.2569517383 0.34290405248 0.33744244006 -8.8606236389 
7.1676839598 -3.4772331861 -7.3645858416 -3.1126468304 2.0794534295 1.8174885995 0.73375108699 -6.0505912787 -2.1681397047 
-8.3277149546 -7.9302561351 5.6454951935 -6.8266367296 -9.1624724264 6.386880141 5.8399780236 2.2905653819 -0.61366210076 
1.7220216583 -6.9083779442 -8.3958838078 -8.4713261723 8.9364930094 -3.015016722 -7.2357583797 6.0921138026 8.5701604218 
-2.3566095149 -6.5477013755 -6.3138376423 -5.7840941249 -2.4083273334 1.483269565 1.1799095254 3.4125263989 3.5738789218 
-0.23460490815 3.8464394192 3.3865917507 -1.7524957798 0.13824564659 2.6046312738 -7.7678517011 -8.6159036604 -8.1487205812 
-9.4410609813 -8.6940748867 -6.9542495656 3.6567309585 3.749518495 -0.34971834799 -1.4567291099 -8.7426873293 -2.5357177297 
2.5131381668 5.8164980491 1.8526694831 2.7737732528 4.5161550913 4.5753012985 2.0459677872 2.1513306571 -0.51852604964 
2.6534477081 -3.0933191697 3.2901484583 -2.9645383334 -5.17254405 -6.2929898324 -6.1581711973 -5.1838542565 -7.4359483546 
-5.6908846612 -5.0112886317 -5.5349245975 -6.5910478202 6.9342787941 -7.4031006381 -2.2625040194 -7.3579628729 -6.4999545662 
-7.823610937 -6.5529492727 -7.5619691718 -8.2513386297 -8.4452210053 -5.6137101896 -5.1856057346 -6.1156910338 -5.1667546116 
-3.6973058496 -8.4163954597 -9.8730002046 -7.2381593898 -8.1977849114 -5.2173509313 -7.2904523598 -3.566641362 -6.424981032 
-4.8746406319 -5.2438952598 -7.2263938805 -6.2849688504 -7.0087914793 -6.607237594 -6.541429457 -7.0008211251 -6.5034990277 
-7.2474386678 -5.7232443435 -9.3707141931 5.8714633327 -1.3611912089 -1.2231645519 -9.5067456485 -5.5200700194 3.3058364439 
-9.1420684484 -9.4785451767 1.1302702782 6.3156510314 -6.1541626053 -9.1704751868 -8.7795213374 -9.436774296 -7.1178222552 
-8.6725002097 -8.9466724669 -8.4035818145 -8.9801334043 -9.4745997332 -9.5102322598 -7.7219648999 -9.6779974534 -9.6138972535 
-9.4784298465 -5.3204672417 -7.2515942013 -5.1794857631 2.1397170605 -3.3951248141 -6.1330049806 -6.3813889464 -8.1360024468 
-5.7865746164 -9.2146447726 -6.5673742975 -5.8047199334 -6.5339980307 -4.6250855936 -8.3177150684 -8.3135864501 -9.7362444565 
-9.5953396311 -9.560160812 -9.4031405662 -9.9397655126 -9.9198622421 -9.6407009649 -8.7782504863 -8.6999531538 -8.9651409988 
-8.7304953516 -8.9107322931 -8.9514930192 -8.7725822337 -8.7667180612 -8.6845097603 -7.7377303965 -9.983834027 -9.20179893 
-7.5340037205 -9.0007263609 -7.717455416 -7.379292189 -7.3402184115 -6.7750072757 -7.7462878877 -7.4271904441 -7.7242892559 
-8.4413010363 -6.6943723241 -6.7448102449 0.91568036847 -8.9080073442 -6.7383274013 -8.353239784 -7.6058964884 -5.8955200881 
-8.3899097356 -6.7859561689 0.97069423388 -8.8988871174 -8.5801640346 -7.6382031615 -9.5192866061 -9.5910739187 -3.5933959607 
-8.5038407814 -3.0831962144 -9.8269294521 -5.9242726955 -3.7102411424 -5.5423618553 -5.8919496921 -3.1616788873 -6.2680009013 
-3.4541473795 -4.0677685952 -2.5175024528 1.154429337 3.9716965683 1.5495059328 -2.8451768457 -8.8139009577 -7.9605220168 
-8.6064098424 -7.6501481849 2.1335261152 -3.5300779531 3.2208475737 -7.8024338008 6.717388073 6.8999453413 6.5021473024 
-5.8942762977 5.3752394719 8.0916779674 -7.8826902299 -1.6981387164 4.4526531264 -5.4104737431 -1.6192669216 4.73533602 
-0.056021205823 -3.2501156925 -2.9800474295 4.4356941438 6.0607883919 -5.6636037976 -5.7370623384 3.943229544 9.880335155 
7.0055983917 -4.1952754898 -1.9527355257 -5.4417753056 -3.5221594284 -2.931126694 0.81848415853 -6.7430747735 -6.8003125884 
-6.5852879177 0.32861842493 -2.6290586834 -8.1916618551 -3.3699827559 -8.9022567202 -6.3987249723 -8.6248640948 -9.0088621225 
-8.7121796586 -8.957454525 -8.1447472529 -9.2955119873 -7.827662024 -9.1853222746 -7.7998088154 -7.7541590561 -8.436836905 
-8.5586172046 -6.9012286498 -8.5686470815 -9.0795984741 -9.1222394273 -9.4820408363 -9.9032060279 -8.2426593614 -8.6512912472 
-8.6256693323 -8.2379177034 -9.2023166199 -5.095696823 -7.4356581142 -9.3343309463 -9.2800509431 -6.7427734643 -7.9047668545 
-6.2258784555 -7.8738058112 -6.649152425 5.0242676152 -4.7629915866 -7.7953085129 -0.97972978528 -1.0302086349 -0.80040536775 
3.6172310399 -9.163811816 -6.9155523008 8.7126971696 -6.9023201263 -8.0402938416 -8.0130533633 -7.0296727959 -7.5893473255 
-6.5012694987 -9.2542454671 -6.4802530321 -8.3195602722 -8.004649638 -8.9168411113 -8.5395708003 -8.3720103569 -8.0621539721 
-8.1565153324 -8.3806254817 -3.7512504561 3.5773675158 -9.078745591 -2.4683363415 -1.6546377787 7.9411313564 3.1389173649 
-6.7710655689 7.355981409 -9.362378359 -5.421232371 6.6612633339 7.3575846398 2.2808285481 -9.4989470078 -0.59258240295 
-7.7663128085 0.41123957072 -7.8036866109 -9.4065918373 -8.834922671 -5.3871985639 -1.6682745844 -1.5528786274 -8.1382223379 
-5.0042227684 -5.7877990745 -5.7218509292 -5.8527216316 -7.5422250451 -9.0299229625 -7.1908063711 -0.085355992245 -7.1376558125 
-5.3609375133 -3.2473709812 -7.4802824111 -6.8352460471 -4.2537506564 -6.3161332578 -3.4266000045 -6.7060021731 -7.0116320334 
-8.4509108138 -5.4804047221 -8.0689198437 -6.2794465494 -7.9002322165 -8.858060159 -5.3624558564 9.6295815724 8.8568753097 
-8.2641062413 -2.4511812933 -8.5192867855 -9.3812819687 -4.7186699422 -9.3322307591 -9.0827084122 -5.8174105572 -5.114632416 
-6.402282793 -7.5686358684 -6.4843967861 -7.0931987151 -7.8253023139 -5.5145796668 -5.9378418365 -9.3693669773 -9.7154776317 
-7.0611019715 -8.995682305 -9.6369985383 -8.8661686011 -7.2639968162 -9.5677104437 -5.6833544532 -2.9663698133 -9.5775515403 
-9.8966044147 3.9556806084 -9.8164691565 5.4945819942 -0.49546531432 -5.7836571473 9.4031687063 -4.7054719868 7.420679886 
-9.8418987111 -7.6895187425 5.8070611095 4.7790921973 -8.954849056 -8.2404030543 -7.3313382881 -8.8185058782 -8.75037163 
3.6791493394 2.3478808185 7.4036264765 -3.3888652899 -8.0297452134 -8.915280262 -7.0660401961 4.5352446526 -7.1949531997 
-8.2574226814 -6.280295897 -6.2446923743 -9.0358853128 -0.33346789542 7.619550283 -8.5562955316 -8.786971496 -0.5578283311 
-8.7266145959 -5.0988474924 -7.6019278171 -7.9705555838 -1.2368962502 -8.7318599466 0.59214204195 -8.4504054118 -8.5536264797 
-6.3993703612 6.5725673736 5.9004193356 6.1484672662 -2.9906021624 -0.59817008933 -3.2357957019 -7.8986905328 -1.827326603 
-3.1096807204 -1.3444382522 0.43035774447 -4.6158911818 -7.888222622 -5.3557852819 -8.647030444 6.8411464834 0.011581456415 
-2.1435609266 8.8152129693 -0.28706670656 -4.5516831493 -1.8242141207 0.86768222833 -2.9493149992 1.2726028202 2.8898181377 
2.4107689182 8.4169330053 3.4580083315 9.6973739792 8.8296138592 7.1584300967 -0.39188644721 8.4249720887 7.4305624711 
9.844372971 9.9795172744 9.5680683176 9.977324887 6.9041259966 2.8352148871 4.6687666335 6.8995888051 8.2493997253 
8.2111166276 8.9763747421 9.4526766894 8.2187978948 9.0923815281 8.3295186518 9.6607967203 6.8457387193 8.9425102853 
6.8642745465 7.0416264473 5.5596856658 6.540984659 6.8746966826 8.1377738383 5.4762341043 5.5144607961 8.0148548547 
5.8839837239 5.9813790806 4.5646474774 6.0542383358 5.6462320209 7.6149737616 6.7177486738 5.7868053834 8.6080027032 
8.4544851655 8.4181030741 7.5446183541 5.9579195463 7.2105641088 7.2314953524 6.6907602512 7.6557121528 7.3812223659 
6.9756461984 4.7429944583 7.5367079832 3.0600060107 9.9748761952 9.8504848374 9.1396030959 9.3441091444 4.7141656691 
9.1526353929 9.1142983212 9.3699125651 -2.9554391597 1.8836964279 6.0211710634 8.8219747412 8.1522799122 8.3199128218 
9.4502838393 9.9397759991 8.87584793 9.5465483145 9.3743197311 9.0163375326 9.2437996042 8.4665667414 7.5440091132 
9.6427266142 9.5514630137 9.3716444286 9.59643753 9.6973864798 8.4430883682 8.7478889756 9.5464401237 9.1418950423 
8.8407044818 7.6361124064 9.0233031541 8.7359151994 8.4813008983 9.692984883 8.6582179559 7.2385102936 6.0433701712 
4.8242547569 7.3844711855 3.5158275022 4.8997333785 4.6811607163 5.0997324534 8.6148666073 7.3513498463 7.6564788987 
7.8933126267 7.6115220424 7.3482169213 4.916256832 3.7954749018 5.567559617 7.0625223972 5.3074076387 7.9243680817 
8.1932527357 7.9461422336 6.4140436832 8.6747047869 7.8053875732 7.3841695188 7.9674859266 6.2573770775 6.8373323083 
6.6444333225 9.0170188134 8.5154166749 7.1343972715 9.3583541321 9.2277536644 8.9560956808 9.9468122274 9.0495302612 
9.3829387045 9.351534127 7.3895886722 7.1296716668 7.9087379504 9.7671443239 8.520502311 5.9122951567 9.8153345204 
8.9193137066 9.9458262786 8.3917878564 9.1218383045 9.9341712678 9.5615633316 9.1260005774 9.931106453 9.8097391498 
9.8382718427 9.9658517623 8.8864551003 9.6194468259 8.8512326238 8.8819641492 9.7705566557 8.5027322172 9.576526002 
9.7399725411 9.4596358282 9.4351750258 9.4265796278 9.5864090242 9.42809128 8.897820132 9.616771347 9.9110202149 
8.9387279638 9.9638448535 9.0516341521 9.1941686326 9.9021021008 9.7164698796 9.4505477504 9.4462720826 9.7985342602 
8.9678406012 9.8904958374 9.7794809853 9.8925525403 9.7524899443 9.9071042577 9.7707693878 9.6411074359 9.976155899 