# vtk DataFile Version 5.1
vtk output
ASCII
DATASET POLYDATA
POINTS 254 float
-11.0901 6.80882 -2.29695 2.06415 3.72653 -45.5087 -2.41819 -43.4092 -5.4606 
-5.64278 -31.949 -32.1894 -37.5591 -5.37368 6.28122 -32.6128 -7.2317 -36.8068 
-28.9788 -70.0996 28.9199 -28.4404 -25.0385 -33.0172 -6.79689 -32.9507 9.02089 
-120.917 -117.456 -1.23676 0.976154 -42.4333 31.2225 -52.9427 -33.0312 13.3815 
56.6282 37.5958 55.7658 -190.374 -24.043 -203.602 -47.4801 -89.2769 50.1327 
-32.5287 102.609 -116.934 -54.9723 -14.3922 4.18408 -46.1803 -48.8917 23.1407 
-56.7394 -44.9249 -14.5356 -64.4636 -11.7488 17.6371 -58.9526 2.6957 -7.42265 
-49.0144 20.915 -58.2001 -56.3893 -9.66522 -56.6501 -62.1651 13.654 -9.47982 
-9.81079 -59.8734 -0.423827 -55.7922 -44.1419 29.8398 -32.1864 -59.1473 -20.9581 
-22.8298 -59.7163 11.3445 -12.3923 3.41545 -58.1138 -58.6122 18.6242 -57.9484 
-57.0239 -11.4564 -49.5704 -11.3093 7.51146 -58.1785 -36.6394 -1.50863 -9.84051 
-38.1044 -42.3928 18.7703 -51.3871 -49.0289 -12.2887 -20.293 -25.5071 37.7317 
-10.2562 27.9485 -19.821 -65.83 22.5928 -55.3322 -54.3077 -21.3578 -61.4176 
-21.5939 46.3552 -33.013 2.50836 -33.3083 -42.4909 -11.0897 -55.213 -7.98794 
7.00408 -117.631 -120.705 14.4747 -14.0113 -31.7853 1.51006 -58.057 -9.11156 
14.9404 -58.0807 -61.5459 -11.253 -50.3725 -46.9645 15.5944 -66.1622 -9.63327 
2.44717 -5.1001 -63.2806 17.4231 -56.9972 -56.1099 -6.6888 -39.0217 -60.9172 
9.55007 -16.5166 -59.1795 31.7264 -22.8699 -11.1625 15.1861 -47.7675 -55.4328 
-17.9284 -47.2398 -47.4519 41.2067 -23.7535 -17.434 -38.3467 0.346055 16.4015 
44.8127 10.021 77.64 17.661 11.1622 6.1684 -7.23634 5.05984 -1.76605 
-43.2809 -31.0571 12.4085 -4.67438 12.1966 13.7583 23.6498 16.769 -11.1367 
-11.9242 -3.4441 -56.1941 -12.8119 20.0743 -51.6215 -34.3866 -16.8942 14.0874 
16.3444 20.0718 30.1181 7.64266 16.2553 -9.16703 15.8991 33.5082 6.09747 
17.1144 -2.5582 -11.8993 -0.557571 22.4558 16.5594 -34.525 -70.8096 6.47255 
4.98277 -50.6649 2.83476 3.39401 16.4169 -21.4947 -32.6284 23.6284 3.96972 
29.7205 17.8605 20.5281 2.05183 -19.2019 -11.4463 10.2028 -10.0057 24.8656 
9.66392 -2.01427 -6.08987 -28.8966 4.81605 11.1973 -18.9401 -1.71858 -13.3433 
-36.6083 14.0457 19.1867 10.7901 -13.2925 34.8345 16.1901 -9.45514 0.636374 
-40.7802 3.86375 13.374 24.4018 -8.39536 13.8485 14.091 19.4961 9.25566 
-9.10807 11.4641 -15.28 13.8088 -0.338206 21.4727 -20.7595 9.05307 7.72493 
55.1383 7.85785 78.7219 26.9331 -1.4419 7.24997 36.6581 38.7484 8.55047 
-33.455 -38.3569 11.7882 0.807529 -10.9997 26.0807 5.17325 -1.10512 3.02629 
-1.11771 3.62909 -52.4664 -2.32472 5.73409 -52.1898 -16.5256 19.9985 -1.9382 
26.9037 17.8533 32.1746 2.14227 10.0904 -1.17776 39.5509 21.5739 9.17033 
25.6272 -3.06107 -11.8901 -27.7701 -2.99332 -32.5745 -14.4249 -77.5158 6.52175 
-26.115 21.5672 3.3129 35.8788 39.3575 -11.6905 -2.03836 11.5582 24.8674 
41.6423 11.1024 14.5557 5.84195 -13.1036 -9.55573 29.7409 13.7788 -17.7888 
6.64777 -0.883487 4.51298 19.7172 -7.97394 -1.47722 -24.4881 4.64849 3.31058 
-26.1587 7.04759 13.1138 47.2357 2.16433 84.6449 23.4592 -10.8051 9.12399 
34.7779 6.67317 13.4267 -22.445 -21.3039 -27.3958 15.6193 10.0999 -8.65133 
-0.610568 23.6855 -12.051 28.9492 3.89319 28.2107 2.56407 -24.8528 11.702 
2.1519 42.1628 79.1319 -9.49587 10.9269 -6.82817 -14.1185 -3.45997 -9.48191 
32.5488 -52.5932 8.20364 28.9702 4.53028 29.1631 5.74818 12.9577 -2.1096 
12.2004 -13.6085 -54.6544 -6.70621 -12.1321 -49.6121 7.03338 -40.9183 10.5529 
-21.6808 13.896 32.7624 8.29049 -5.96765 -17 -8.43272 25.262 3.87474 
8.39754 7.17562 -20.8196 10.1691 -3.49164 17.7685 -8.70245 -33.5048 4.552 
10.1265 2.56786 13.3678 -22.7068 1.16044 -15.3356 28.4176 4.9755 16.8309 
-16.3153 26.197 16.5376 16.1171 16.2146 3.08702 0.333296 -5.67276 3.16754 
8.81049 20.218 -5.06663 46.2127 8.26901 -5.14113 -76.2997 -39.6441 -1.07362 
-3.03078 -31.5563 17.3703 22.9908 18.1794 32.5871 50.4465 7.69402 4.42135 
22.6666 -13.4962 25.7452 5.05497 8.20762 12.2173 2.86255 24.534 -0.373368 
5.34981 -7.05345 -13.6264 5.4168 15.5339 27.0857 5.34522 -22.4028 9.58882 
2.2011 53.1488 79.6104 -1.8246 18.8356 9.47028 -17.022 5.74036 17.817 
43.336 -35.6359 14.0175 10.6099 3.98685 18.8806 12.4351 18.0256 5.94939 
7.42792 0.249977 -54.8379 -3.193 -2.29764 -57.7638 0.813106 -23.4307 9.44267 
-27.826 17.9788 32.2313 3.36949 9.27117 -7.40851 -23.5039 28.3589 -1.93242 
9.06929 17.4678 -2.82476 1.72142 -3.65297 -6.94284 -4.64075 -23.0552 9.58503 
2.94648 -3.94081 -10.0367 9.05816 38.3198 -2.10404 29.8476 19.3102 15.1841 
-15.3574 32.8663 17.7483 5.74139 31.1679 20.5203 17.0144 17.8647 -2.86504 
6.52853 -3.90286 2.30533 0.886841 -1.59527 -10.5322 -34.0946 -15.6382 11.6826 
0.879281 -26.4853 12.5269 3.55138 54.2207 79.7325 105.569 44.4374 5.50055 
-54.0814 -17.8644 8.03795 10.3351 -3.7729 -30.9939 7.95615 31.9117 4.13732 
-2.13528 5.57415 -0.285135 3.30317 -0.640401 -12.9483 6.56518 -3.89779 -41.9507 
79.2756 0.937056 44.2736 0.84625 -16.3538 10.2506 -10.8242 -4.12581 -10.9491 
7.33357 36.1168 -48.7111 29.3231 20.7115 2.96722 -1.07395 5.96113 12.9852 
-54.5481 12.256 -13.7407 -50.1969 -6.92898 -14.6681 4.53694 11.0425 -30.7811 
28.3297 -13.8601 20.4555 -10.9893 -0.763852 13.9735 11.6771 -8.63851 21.8945 
-22.7319 2.14321 19.5365 32.1323 2.26546 -9.16255 3.0422 -7.20591 -34.1728 
0.570815 22.3569 -0.0100718 -8.50981 -20.0811 -4.97196 39.5296 3.49999 -8.74675 
13.0483 -2.96597 28.4982 3.25145 23.8618 6.12237 6.83196 8.46013 -8.28864 
-10.6556 12.6707 19.2564 -3.73631 45.0252 11.3667 -0.310781 -76.5424 -32.033 
17.8436 -3.63881 -31.1578 31.8155 23.5787 12.5449 5.06193 50.7361 8.90381 
26.1575 21.287 -14.048 11.8455 4.29686 21.857 -1.41717 3.12213 24.5737 
-15.4549 -0.743865 -8.66041 24.7963 6.26774 17.4777 6.26995 3.8122 -23.8026 
78.1153 1.33076 54.4836 10.1089 -1.27635 18.7519 24.5594 -11.2853 1.67107 
12.3371 42.665 -35.5159 17.6177 14.8151 8.66327 7.66592 12.195 18.164 
-52.2275 5.41494 -1.26332 -53.6212 -2.49647 -0.973316 8.78083 1.02076 -27.417 
29.9496 -26.8346 18.3094 -9.53033 -0.651243 11.3378 -7.65186 -25.5651 22.0848 
-11.268 6.13865 18.5477 7.30761 8.73757 16.2194 9.9635 -5.40971 -21.7426 
-10.837 -2.06688 -7.12074 -8.57749 10.4818 29.536 15.2334 28.0978 20.0751 
17.9652 -13.7401 33.2496 15.0875 4.0747 31.653 -11.971 19.1425 18.5123 
-3.23346 -5.63432 -1.68884 -3.91148 8.57786 -2.03931 9.73546 -32.1581 -18.2409 
12.8091 1.54042 -26.7266 80.1175 3.77596 54.1603 5.03135 105.558 44.7126 
7.57758 -53.4636 -19.0273 -31.3452 11.89 -4.56211 3.51865 5.68039 30.4034 
-14.7983 2.78516 6.40984 10.1342 -11.0313 1.84424 
POLYGONS 505 1512
OFFSETS vtktypeint64
0 3 6 9 12 15 18 21 24 
27 30 33 36 39 42 45 48 51 
54 57 60 63 66 69 72 75 78 
81 84 87 90 93 96 99 102 105 
108 111 114 117 120 123 126 129 132 
135 138 141 144 147 150 153 156 159 
162 165 168 171 174 177 180 183 186 
189 192 195 198 201 204 207 210 213 
216 219 222 225 228 231 234 237 240 
243 246 249 252 255 258 261 264 267 
270 273 276 279 282 285 288 291 294 
297 300 303 306 309 312 315 318 321 
324 327 330 333 336 339 342 345 348 
351 354 357 360 363 366 369 372 375 
378 381 384 387 390 393 396 399 402 
405 408 411 414 417 420 423 426 429 
432 435 438 441 444 447 450 453 456 
459 462 465 468 471 474 477 480 483 
486 489 492 495 498 501 504 507 510 
513 516 519 522 525 528 531 534 537 
540 543 546 549 552 555 558 561 564 
567 570 573 576 579 582 585 588 591 
594 597 600 603 606 609 612 615 618 
621 624 627 630 633 636 639 642 645 
648 651 654 657 660 663 666 669 672 
675 678 681 684 687 690 693 696 699 
702 705 708 711 714 717 720 723 726 
729 732 735 738 741 744 747 750 753 
756 759 762 765 768 771 774 777 780 
783 786 789 792 795 798 801 804 807 
810 813 816 819 822 825 828 831 834 
837 840 843 846 849 852 855 858 861 
864 867 870 873 876 879 882 885 888 
891 894 897 900 903 906 909 912 915 
918 921 924 927 930 933 936 939 942 
945 948 951 954 957 960 963 966 969 
972 975 978 981 984 987 990 993 996 
999 1002 1005 1008 1011 1014 1017 1020 1023 
1026 1029 1032 1035 1038 1041 1044 1047 1050 
1053 1056 1059 1062 1065 1068 1071 1074 1077 
1080 1083 1086 1089 1092 1095 1098 1101 1104 
1107 1110 1113 1116 1119 1122 1125 1128 1131 
1134 1137 1140 1143 1146 1149 1152 1155 1158 
1161 1164 1167 1170 1173 1176 1179 1182 1185 
1188 1191 1194 1197 1200 1203 1206 1209 1212 
1215 1218 1221 1224 1227 1230 1233 1236 1239 
1242 1245 1248 1251 1254 1257 1260 1263 1266 
1269 1272 1275 1278 1281 1284 1287 1290 1293 
1296 1299 1302 1305 1308 1311 1314 1317 1320 
1323 1326 1329 1332 1335 1338 1341 1344 1347 
1350 1353 1356 1359 1362 1365 1368 1371 1374 
1377 1380 1383 1386 1389 1392 1395 1398 1401 
1404 1407 1410 1413 1416 1419 1422 1425 1428 
1431 1434 1437 1440 1443 1446 1449 1452 1455 
1458 1461 1464 1467 1470 1473 1476 1479 1482 
1485 1488 1491 1494 1497 1500 1503 1506 1509 
1512 
CONNECTIVITY vtktypeint64
20 21 82 22 63 21 65 57 64 
58 65 66 64 66 65 23 3 66 
19 18 58 3 19 66 66 19 58 
22 23 64 64 23 66 63 22 57 
57 22 64 67 13 77 14 13 67 
69 56 68 70 68 59 69 70 15 
68 70 69 16 2 70 70 59 16 
17 16 59 2 15 70 15 14 69 
56 14 67 69 14 56 71 17 59 
58 18 71 71 18 17 72 59 68 
73 68 56 60 72 73 68 73 72 
65 58 74 75 74 60 57 65 75 
74 75 65 72 60 74 71 74 58 
59 72 71 74 71 72 76 56 67 
61 76 77 67 77 76 13 12 77 
12 0 78 80 61 79 79 9 80 
8 78 0 9 79 8 78 8 79 
77 79 61 78 77 12 79 77 78 
63 57 81 82 81 62 63 82 21 
81 82 63 84 62 83 10 84 83 
80 10 83 84 10 11 1 20 85 
85 20 82 11 85 84 85 11 1 
62 84 82 85 82 84 10 80 9 
86 83 62 61 80 86 83 86 80 
87 62 81 75 81 57 60 87 75 
81 75 87 76 61 88 73 88 60 
56 76 73 88 73 76 87 60 88 
86 88 61 62 87 86 88 86 87 
36 115 37 38 37 96 98 97 90 
91 99 98 97 98 99 39 99 7 
35 91 34 7 99 35 99 91 35 
38 97 39 97 99 39 96 90 38 
90 97 38 100 110 29 30 100 29 
102 101 89 103 92 101 102 31 103 
101 102 103 32 103 6 103 32 92 
33 92 32 6 103 31 31 102 30 
89 100 30 102 89 30 104 92 33 
91 104 34 104 33 34 105 101 92 
106 89 101 93 106 105 101 105 106 
98 107 91 108 93 107 90 108 98 
107 98 108 105 107 93 104 91 107 
92 104 105 107 105 104 109 100 89 
94 110 109 100 109 110 29 110 28 
28 111 4 113 112 94 112 113 25 
24 4 111 25 24 112 111 112 24 
110 94 112 111 28 110 112 111 110 
96 114 90 115 95 114 96 37 115 
114 96 115 117 116 95 26 116 117 
113 116 26 117 27 26 5 118 36 
118 115 36 27 117 118 118 5 27 
95 115 117 118 117 115 26 25 113 
119 95 116 94 119 113 116 113 119 
120 114 95 108 90 114 93 108 120 
114 120 108 109 121 94 106 93 121 
89 106 109 121 109 106 120 121 93 
119 94 121 95 119 120 121 120 119 
47 46 148 45 129 46 131 123 130 
124 131 132 130 132 131 44 1 132 
11 10 124 1 11 132 132 11 124 
45 44 130 130 44 132 129 45 123 
123 45 130 133 42 143 41 42 133 
135 122 134 136 134 125 135 136 40 
134 136 135 8 0 136 136 125 8 
9 8 125 0 40 136 40 41 135 
122 41 133 135 41 122 137 9 125 
124 10 137 137 10 9 138 125 134 
139 134 122 126 138 139 134 139 138 
131 124 140 141 140 126 123 131 141 
140 141 131 138 126 140 137 140 124 
125 138 137 140 137 138 142 122 133 
127 142 143 133 143 142 42 43 143 
43 4 144 146 127 145 145 25 146 
24 144 4 25 145 24 144 24 145 
143 145 127 144 143 43 145 143 144 
129 123 147 148 147 128 129 148 46 
147 148 129 150 128 149 26 150 149 
146 26 149 150 26 27 5 47 151 
151 47 148 151 27 5 27 151 150 
128 150 148 151 148 150 26 146 25 
152 149 128 127 146 152 149 152 146 
153 128 147 141 147 123 126 153 141 
147 141 153 142 127 154 139 154 126 
122 142 139 154 139 142 153 126 154 
152 154 127 128 153 152 154 152 153 
55 181 54 53 54 162 164 163 156 
157 165 164 163 164 165 52 165 3 
19 157 18 3 165 19 165 157 19 
53 163 52 163 165 52 162 156 53 
156 163 53 166 176 50 49 166 50 
168 167 155 169 158 167 168 48 169 
167 168 169 16 169 2 169 16 158 
17 158 16 2 169 48 48 168 49 
155 166 49 168 155 49 170 158 17 
157 170 18 170 17 18 171 167 158 
172 155 167 159 172 171 167 171 172 
164 173 157 174 159 173 156 174 164 
173 164 174 171 173 159 170 157 173 
158 170 171 173 171 170 175 166 155 
160 176 175 166 175 176 50 176 51 
51 177 6 179 178 160 178 179 33 
32 6 177 33 32 178 177 178 32 
176 160 178 177 51 176 178 177 176 
162 180 156 181 161 180 162 54 181 
180 162 181 183 182 161 34 182 183 
179 182 34 183 35 34 7 184 55 
184 181 55 184 7 35 35 183 184 
161 181 183 184 183 181 34 33 179 
185 161 182 160 185 179 182 179 185 
186 180 161 174 156 180 159 174 186 
180 186 174 175 187 160 172 159 187 
155 172 175 187 175 172 186 187 159 
185 160 187 161 185 186 187 186 185 
31 30 214 29 195 30 197 189 196 
190 197 198 196 198 197 28 4 198 
43 42 190 4 43 198 198 43 190 
29 28 196 196 28 198 195 29 189 
189 29 196 199 14 209 13 14 199 
201 188 200 202 200 191 201 202 12 
200 202 201 40 0 202 202 191 40 
41 40 191 0 12 202 12 13 201 
188 13 199 201 13 188 203 41 191 
190 42 203 203 42 41 204 191 200 
205 200 188 192 204 205 200 205 204 
197 190 206 207 206 192 189 197 207 
206 207 197 204 192 206 203 206 190 
191 204 203 206 203 204 208 188 199 
193 208 209 199 209 208 14 15 209 
15 2 210 212 193 211 211 49 212 
48 210 2 49 211 48 210 48 211 
209 211 193 210 209 15 211 209 210 
195 189 213 214 213 194 195 214 30 
213 214 195 216 194 215 50 216 215 
212 50 215 216 50 51 6 31 217 
217 31 214 217 51 6 51 217 216 
194 216 214 217 214 216 50 212 49 
218 215 194 193 212 218 215 218 212 
219 194 213 207 213 189 192 219 207 
213 207 219 208 193 220 205 220 192 
188 208 205 220 205 208 219 192 220 
218 220 193 194 219 218 220 218 219 
39 247 38 37 38 228 230 229 222 
223 231 230 229 230 231 36 231 5 
47 223 46 5 231 47 231 223 47 
37 229 36 229 231 36 228 222 37 
222 229 37 232 242 22 21 232 22 
234 233 221 235 224 233 234 20 235 
233 234 235 44 235 1 235 44 224 
45 224 44 1 235 20 20 234 21 
221 232 21 234 221 21 236 224 45 
223 236 46 236 45 46 237 233 224 
238 221 233 225 238 237 233 237 238 
230 239 223 240 225 239 222 240 230 
239 230 240 237 239 225 236 223 239 
224 236 237 239 237 236 241 232 221 
226 242 241 232 241 242 22 242 23 
23 243 3 245 244 226 244 245 53 
52 3 243 53 52 244 243 244 52 
242 226 244 243 23 242 244 243 242 
228 246 222 247 227 246 228 38 247 
246 228 247 249 248 227 54 248 249 
245 248 54 249 55 54 7 250 39 
250 247 39 250 7 55 55 249 250 
227 247 249 250 249 247 54 53 245 
251 227 248 226 251 245 248 245 251 
252 246 227 240 222 246 225 240 252 
246 252 240 241 253 226 238 225 253 
221 238 241 253 241 238 252 253 225 
251 226 253 227 251 252 253 252 251 

CELL_DATA 504
SCALARS scalars double
LOOKUP_TABLE default
-9.4057683822 0.5492368178 8.1119474986 8.0981124764 -7.5372145878 -6.8487035639 -6.3466313871 7.8561496693 -8.8960539672 
7.6582469033 9.9444347737 9.8957701035 -7.6843091421 5.9770425504 -6.0503246459 3.9832638352 6.4564971683 -5.0053044473 
-3.2078291151 -3.1704481995 7.3727307017 -4.6444746077 0.42166859041 6.5448650062 2.9013810992 -2.7445182472 1.7077802472 
2.9257022004 5.5963077556 -0.059763023168 -8.0324838971 3.3054058728 1.0670224581 2.4149454857 1.9281614018 -8.4239432016 
-2.4517083358 -1.0362577994 -0.27216108782 -0.91936115924 0.24822495168 1.3583383641 -4.2334284059 -1.4167920269 -3.0598757344 
-7.4773863976 -9.0905659044 -5.6933943377 2.90857782 0.7663443217 -2.0099658134 -3.2925577771 6.2684315803 9.3311065414 
-9.7077165044 -7.7471002628 -8.3375868441 8.6092452027 -3.2638837112 -5.6872470994 7.0474090461 -0.98150099484 9.819526974 
9.6260823293 0.024514302535 -9.0976024443 8.3027467462 -9.2867937899 5.1499091138 -0.62874591879 -8.8322328296 -2.8755061894 
-9.7425324491 9.8668589842 -7.1888293481 9.9152532888 5.6979779058 -7.7099325422 1.917436956 1.1374812038 7.145438642 
-5.2444670992 9.7224407739 3.6409940505 -8.5513938947 1.5979581834 -9.2464298255 -7.0193842092 9.5412954829 -0.75150823579 
8.6107430244 -7.3871320223 6.176538447 -4.0683387132 -5.3016649521 -8.8260249249 8.5464661189 9.8412441624 1.6898428969 
-6.8456214328 0.55216138575 9.4311982378 5.0970112442 -2.8778714185 8.7692419028 5.1874056701 -5.3978816494 -8.6350307785 
9.5705849805 -9.2140008984 -1.4060011498 -1.7418291059 -6.0349043152 0.20978995083 7.3530809364 1.1269454763 -7.5461049425 
8.997944025 3.6930401142 9.8912665863 -9.6186785737 -1.8375665598 -2.3888624414 -0.21744368805 -0.56383599461 -2.6569822134 
6.3226378557 -2.1397951462 8.2614934259 -9.9053512376 -9.0821910965 3.6433636153 0.97033992386 -2.5074668683 1.7043534554 
0.4808386731 -9.0015587257 -3.3398941573 9.9878704116 9.6795671692 9.5467915009 -9.9617605398 0.21260814698 1.8697231391 
3.2425193994 -6.3449019902 0.42718777939 1.3395483019 5.4466426247 6.7332436381 9.5097953548 -8.447625607 2.802260818 
6.6720968082 8.4542509078 -6.6976548542 5.4364378482 -9.9614106289 4.9277553022 -8.6044599966 -8.814468718 6.58981249 
1.9945580848 -4.8470271186 -5.344648776 8.3123330026 5.4579379583 -7.5086228466 1.8727158378 -1.0836609842 -1.7281566404 
-3.6876209277 4.5868979841 1.5000849647 5.486739078 6.1172092922 -6.0908896332 -3.6495484266 -2.5528406086 -0.53272334649 
4.6546299794 3.3516081384 -2.9845831642 -2.5608795436 -1.5949582391 -1.0444078088 5.8039965605 -1.453345122 2.2622184851 
4.2005640929 -6.2391291768 2.5120731125 -3.7536937398 3.2278968058 -3.5550036787 -0.76286265977 -7.0886023968 2.1579388273 
0.6567175713 -3.1795339839 -2.1213363709 -1.2202996177 1.5329555654 3.3572327059 -1.086931201 -1.5768227986 2.0739971065 
-1.9594794886 1.5232238647 -3.1700075977 4.8905082542 5.5489231274 -4.2221879409 4.9952278278 9.2719644623 -8.771199061 
0.01192356916 3.0919255982 0.53443392191 -9.5344839658 -1.6620197226 -2.7503943125 -1.981384665 -3.3565748654 -5.2304384609 
4.7834704493 -7.1995395372 7.820598312 -5.1192828007 6.4785248368 -2.8875469169 -2.9881583589 -3.2069547403 -1.7540715399 
-0.88984207711 1.4233017335 9.2620599877 1.8605728482 -5.2334204165 0.78473857119 -1.1799428783 -2.0753285683 5.242080247 
-2.1035997303 -8.9380407487 4.342363372 3.3394592623 -9.4327434831 -4.1464420543 8.8476765798 2.7926883923 -1.0280497075 
-7.8116345573 -0.25866614343 0.28282826953 0.40532516404 -5.2201904779 -8.0488514497 5.9562887405 -6.9755024184 7.6785126715 
3.0751027261 8.3712953831 1.5974952742 -3.6051941393 7.4061705545 -5.6815542824 2.8473645313 -5.3901259442 3.321055481 
1.8009955545 -0.16872396207 8.2393173535 3.3032529144 1.0298233048 2.4677012235 -1.2373372344 -0.30453779481 -1.0611367554 
-0.31429127211 -8.5892305661 5.3467783249 -1.9197366189 -0.75671115562 -1.9306957365 -0.11711122054 -0.07875318922 -3.0599292477 
1.4213718849 1.6303376033 -0.14643520543 2.0681967073 5.8493672636 -0.11773794945 1.4308033785 7.6490131348 5.7910535483 
-4.2698182533 -9.1734257377 1.554929989 4.6189045261 -5.7288042122 9.8462807295 -5.9591300135 -4.0565636502 4.7280719598 
0.73443577798 2.1457740995 4.3698449168 -0.85245380303 1.0325274011 -5.2021397405 6.5542631806 4.5647740638 -3.0088127106 
7.1574277571 8.7379270843 -9.5730375659 -7.8536217702 7.8537738161 2.271544034 1.2005523159 4.1826848505 -1.8929592523 
2.615404557 2.7578680879 -6.0438508443 2.2073881029 -1.8524269744 1.2203669542 -0.34711115644 1.7003506821 -7.2910226523 
-0.23697653587 -0.054310006738 3.80642029 9.2485851439 0.28213730549 -9.2164379386 -8.1252352303 8.6319712787 9.8147144693 
3.0454485564 -9.899620019 9.94819142 -8.4933116198 -9.7517792164 -9.8981947082 7.9878779559 -0.8149895834 4.9834351278 
-9.5410707371 -9.5959739195 -8.897088355 8.5713899856 7.0050719599 -7.1526595007 0.16974695972 8.7581810723 8.2522422717 
9.9655979872 -9.9434493016 -0.25094911257 -0.024579511841 1.5235198299 1.1322249405 7.9731831554 -2.1691792101 -1.0835910444 
8.2748772547 8.4366055965 9.6293440546 -9.729581497 -8.305936819 -9.0810341999 5.0743024528 7.4550882728 4.063947511 
-6.8247888543 -2.9838973178 -6.2214135055 -1.6605825294 -3.3641028404 1.5495730746 0.8386049551 -2.6348703863 -1.6120986525 
5.0180486096 6.606202304 0.47811653723 9.6697513903 8.1770582046 8.3052822641 -8.3969366779 0.34028401286 -6.1410463067 
0.1994151314 -5.8349360105 -4.8331363478 -7.5053275522 4.7178684417 5.0205092706 -8.8137283753 7.3543188447 6.1232566911 
1.3612690558 4.2352716442 -0.8736224366 9.6607124645 -9.9835758255 7.621321264 -9.9649082874 -6.7182789692 5.4090442286 
-3.0722275941 0.78096543468 -7.7214929238 6.865682319 7.6970045313 -9.8920205779 0.034169690338 -2.7039579332 9.9857033066 
6.1310700327 -8.7353644324 -0.48626782799 -2.8010214261 2.4069866795 -3.8549639783 8.0924555326 5.562902342 9.3895408498 
-8.677343971 -3.0035546605 -2.2382112777 1.4603561252 1.0683427476 -9.8705353026 -1.2224741468 0.56047101 -3.6006780037 
-4.7147191121 -9.9511019713 9.3028191885 -9.6420178907 9.6314231635 3.9078065332 4.456614465 5.6451081379 7.8078677278 
0.31459427144 -4.1465418327 0.41192296415 -1.701378789 0.53169854058 -9.073593716 -0.18878311088 5.4199455797 1.7246078088 
9.6858034318 -7.655528612 -9.7695190717 8.6073464298 -3.4274955358 -8.9437230866 7.0616758241 4.3693232481 3.1522565277 
7.3645906451 -6.8725625879 -0.36945521259 8.8501760398 6.6408243602 -0.53183565083 -9.9834834717 -9.5607449419 -8.9621310843 
9.9763645635 0.5760957717 2.5781928164 -3.5485941075 5.7851657063 0.93134654276 6.5567093062 -6.1025467321 1.6063876941 
4.4219612006 -4.37452213 -9.1478422334 -0.56476666041 -3.6656317189 0.37169300982 -9.3259967373 9.1115917099 -7.6041654651 
9.3133391396 -2.7278980562 -2.4538825482 9.6313475516 -8.4017928377 5.0696571283 3.5084751766 -8.2737595128 8.3175867412 

