# vtk DataFile Version 5.1
vtk output
ASCII
DATASET POLYDATA
POINTS 254 float
-18.1186 12.2236 6.47601 1.8446 3.27406 -48.5652 -4.72448 -52.5162 -14.6424 
-8.08869 -32.578 -34.9304 -47.9139 -4.35775 10.2927 -38.79 -8.93557 -36.2884 
-18.5247 -48.346 7.78337 -25.3594 -20.3657 -31.3072 -4.77724 -47.4093 14.1013 
-114.103 -109.625 -1.39347 -5.15509 -50.8028 48.3518 -49.7842 -30.8338 12.3033 
38.9173 36.3275 28.6316 -190.578 -24.9581 -199.334 -59.9221 -78.1717 27.3329 
-42.3113 93.5566 -110.283 -62.4206 -18.425 -0.529869 -50.5277 -49.0111 29.9941 
-54.3342 -45.5033 -16.7061 -66.5842 -8.21295 20.5835 -58.7202 5.01219 -10.4078 
-48.0825 22.7758 -62.0758 -56.1016 -10.446 -56.6008 -64.7736 14.3134 -9.75655 
-12.2382 -62.035 0.661419 -52.8843 -44.4659 23.9193 -32.0063 -57.495 -25.0916 
-26.5443 -64.215 18.6984 -11.4412 1.03455 -60.8433 -55.8242 26.4556 -59.3496 
-62.0512 -15.7692 -43.9277 0.477592 0.915607 -71.915 -56.2345 6.95316 0.814481 
-38.142 -52.6667 28.7994 -42.371 -59.9526 -20.6397 -20.3739 -27.7868 43.175 
0.12067 53.4957 -26.7722 -72.5052 22.5979 -51.4086 -56.5863 -33.2328 -63.0001 
-20.8819 53.7198 -35.0827 7.01745 -33.8693 -44.3653 -14.3975 -73.54 -9.24459 
5.03432 -111.596 -107.802 29.3959 -4.56264 -48.8829 -1.33064 -59.7651 -10.5829 
20.6376 -60.1247 -63.1134 -16.1217 -50.9084 -46.2681 16.7943 -70.0803 -8.22481 
2.76608 -5.31779 -67.1749 15.3065 -55.7985 -48.4921 -13.1128 -41.0246 -60.5824 
8.16158 -28.1491 -70.2409 41.5724 -24.1434 -14.0205 14.8229 -49.4343 -67.611 
-35.8352 -44.9365 -59.849 47.7126 -22.9502 -14.6243 -46.1514 2.69317 18.9965 
34.3805 8.00276 66.3797 16.7512 6.04225 1.88421 -7.32986 6.07212 -4.54965 
-43.0956 -33.9851 13.6563 -8.62498 24.6301 24.4301 26.6765 22.492 -24.9743 
-7.12151 -4.33308 -55.0553 -11.0419 19.8742 -46.2083 -33.466 -20.5743 19.0516 
13.6585 22.7306 33.4354 14.0299 18.3243 -7.46174 27.1186 34.1485 8.18815 
25.4009 -6.82759 -14.834 -4.07358 30.4918 33.1804 -33.5367 -67.7452 3.9268 
9.24514 -50.4845 3.38864 -1.8839 21.6296 -33.1162 -36.9933 29.4572 2.19722 
39.2775 19.8255 21.8987 3.13018 -28.4596 -11.9541 17.6749 -26.1788 47.4902 
17.0593 2.52387 -10.0638 -39.9778 15.5491 4.57254 -18.164 -7.72224 -10.0334 
-39.4027 15.6275 29.2278 13.6678 -17.7117 43.9969 14.4738 -11.9622 -4.23211 
-36.7686 2.68362 13.3047 18.3245 -6.09428 8.56118 19.8113 23.2637 12.3329 
-15.4722 12.2512 -28.3392 17.4853 -7.35514 26.5742 -26.2605 9.8733 11.5076 
45.6835 7.19245 60.1789 28.7043 -6.79557 4.81972 28.7137 37.9534 5.03491 
-15.7319 -29.2981 7.69215 -4.33692 -7.14349 33.6183 -0.845511 -9.01888 -7.01211 
11.7262 3.52629 -45.7208 10.4814 4.52738 -54.5483 -27.3622 26.6986 0.0221511 
24.6147 16.4296 27.2079 4.21464 13.7692 -1.2277 44.8752 16.6785 14.7897 
25.0218 -4.68128 -14.4452 -36.9441 -7.10108 -38.8625 -8.49196 -70.5593 -1.45692 
-39.7911 19.3948 0.931041 34.4849 35.5822 -17.2504 -0.541197 21.0257 49.4287 
52.1956 0.397927 17.0759 10.5026 -21.1233 -15.0511 27.8287 21.1781 -19.2786 
6.03759 -1.43772 2.03687 32.6651 -19.9976 -4.1061 -37.1849 12.117 6.31022 
-38.7036 9.47034 32.5429 33.0623 -1.09324 65.3841 34.7592 -23.4675 20.934 
42.8687 15.8793 16.5727 -22.198 -32.5417 -28.2596 24.8023 13.4336 -21.4723 
-13.17 36.1248 -20.7563 33.4423 -1.08779 40.824 3.43132 -30.8538 16.4309 
1.98066 33.4355 65.3104 -6.98705 11.9388 -7.79281 -27.2206 -0.833323 -13.5434 
17.6475 -35.8479 9.58107 39.7532 5.46263 38.2539 -9.90815 13.0245 -14.7619 
13.2591 -7.97769 -51.1999 -7.22356 -10.3547 -41.8948 7.49589 -42.9163 14.7771 
-26.0386 16.9918 39.538 12.307 -3.56341 -28.0083 -15.4938 35.8985 -2.41485 
8.32843 0.564421 -16.5045 16.012 0.691331 19.1957 -1.64467 -48.5425 -13.9062 
10.8638 11.5537 25.9749 -18.191 -4.04114 -17.2677 51.2178 6.9325 17.5965 
-24.3978 28.6425 20.3995 19.4916 20.2764 -1.12406 -10.4193 -18.56 8.19858 
6.50613 21.839 -7.75596 40.3373 4.01648 -7.28901 -57.7527 -37.3208 0.861419 
-3.16548 -40.2817 27.5188 33.1873 20.0596 42.3935 33.4729 2.58688 4.3182 
29.4025 -15.2952 29.8181 2.63454 7.41219 9.57706 13.2749 42.1639 -3.93137 
11.7583 -12.0841 -33.3238 1.01138 15.4783 39.1955 7.44034 -23.1661 5.02691 
2.86666 39.7701 64.2472 -1.52476 19.747 3.18029 -23.8221 5.38315 30.4544 
32.0884 -11.3567 16.9696 15.4229 -2.00635 35.1815 32.2733 30.9779 -16.4857 
7.83953 10.8357 -47.699 -2.26985 1.83202 -48.4228 3.99581 -27.2066 18.3132 
-34.3084 17.6662 34.2415 -1.11043 11.9172 -10.3474 -26.2851 33.5452 -1.63988 
7.06985 18.2907 -13.2747 8.31524 -8.76199 -2.22175 0.979059 -34.9137 9.64304 
-1.97361 -8.83582 -16.9479 27.3924 39.243 2.4196 46.7791 24.0223 17.0451 
-18.5086 44.3577 27.1175 -0.136884 29.4452 25.8725 23.0861 24.9093 -2.99918 
10.6078 -6.30723 14.1843 3.83378 -9.39487 -17.222 -44.9173 -10.9424 18.5503 
-0.808067 -29.0848 37.6519 -2.69338 36.8104 62.2971 97.8965 33.2479 11.0582 
-59.2178 -16.3608 24.0399 7.68381 1.53205 -28.9424 11.342 55.1483 1.99865 
-24.51 -8.10128 -14.395 6.89984 -3.07491 -27.3644 14.8866 -4.95215 -49.3301 
63.039 1.4521 35.8956 -5.03588 -30.3482 11.2116 -23.9519 4.3467 -12.3409 
7.59454 28.5273 -35.1747 43.8003 39.2158 5.1713 -10.9379 -11.3743 9.94013 
-54.5569 12.5874 -7.06863 -44.0744 -9.93599 -8.09781 3.93334 15.6796 -39.6841 
29.7751 -13.3299 25.4232 -11.2934 2.97408 22.9753 18.6029 -9.98885 35.1674 
-28.0653 1.77874 20.8179 35.9081 0.549622 -12.9209 4.0239 5.27129 -50.8156 
1.76552 30.9815 5.55486 -11.6356 -26.9358 -10.6896 56.2243 0.60071 -7.65784 
11.9658 0.113508 35.1371 -0.977825 32.478 13.5464 26.5885 -13.0633 -15.5285 
-22.4749 23.6907 17.2885 -1.70175 37.1406 7.75771 -0.239474 -61.4105 -31.463 
28.2462 -3.53384 -39.7389 44.5823 30.1158 22.7147 6.68381 27.4318 4.10935 
34.0047 35.7966 -11.4203 10.0661 2.01462 21.5479 -14.6437 13.0254 38.1221 
-27.9199 -1.6864 -10.1223 34.7322 5.44141 22.1058 4.69705 4.72884 -25.561 
63.6283 1.86608 41.9792 1.03789 -2.66026 21.7322 35.3418 -20.885 -1.65392 
12.5572 32.171 -19.0159 28.3802 24.753 3.13059 9.82061 29.3563 37.5892 
-52.4233 5.38822 11.302 -51.6631 -3.87474 1.03172 15.5265 3.5295 -29.1512 
34.2467 -36.1173 18.6299 -11.2146 -6.90575 11.4832 -2.33003 -25.549 25.7629 
-21.3332 9.34446 24.448 6.53436 6.07667 17.2123 13.9829 7.37733 -39.0964 
-16.6388 -7.73279 -12.4944 -14.4147 22.0392 30.0406 17.7331 44.0823 22.259 
23.7799 -19.5036 41.1738 20.6803 1.40799 31.1579 -15.8511 23.7251 26.0599 
-2.74238 -10.8202 3.82377 -5.51476 14.4439 -6.74801 22.6598 -39.889 -17.0162 
31.337 -1.60555 -33.8136 64.6216 -3.2532 35.1503 4.12635 99.249 36.1526 
21.3808 -63.7453 -20.246 -28.419 11.4067 -0.0572304 -4.99848 7.83853 48.3842 
-36.8824 -0.669686 -1.36806 15.1012 -16.7329 4.43094 
POLYGONS 505 1512
OFFSETS vtktypeint64
0 3 6 9 12 15 18 21 24 
27 30 33 36 39 42 45 48 51 
54 57 60 63 66 69 72 75 78 
81 84 87 90 93 96 99 102 105 
108 111 114 117 120 123 126 129 132 
135 138 141 144 147 150 153 156 159 
162 165 168 171 174 177 180 183 186 
189 192 195 198 201 204 207 210 213 
216 219 222 225 228 231 234 237 240 
243 246 249 252 255 258 261 264 267 
270 273 276 279 282 285 288 291 294 
297 300 303 306 309 312 315 318 321 
324 327 330 333 336 339 342 345 348 
351 354 357 360 363 366 369 372 375 
378 381 384 387 390 393 396 399 402 
405 408 411 414 417 420 423 426 429 
432 435 438 441 444 447 450 453 456 
459 462 465 468 471 474 477 480 483 
486 489 492 495 498 501 504 507 510 
513 516 519 522 525 528 531 534 537 
540 543 546 549 552 555 558 561 564 
567 570 573 576 579 582 585 588 591 
594 597 600 603 606 609 612 615 618 
621 624 627 630 633 636 639 642 645 
648 651 654 657 660 663 666 669 672 
675 678 681 684 687 690 693 696 699 
702 705 708 711 714 717 720 723 726 
729 732 735 738 741 744 747 750 753 
756 759 762 765 768 771 774 777 780 
783 786 789 792 795 798 801 804 807 
810 813 816 819 822 825 828 831 834 
837 840 843 846 849 852 855 858 861 
864 867 870 873 876 879 882 885 888 
891 894 897 900 903 906 909 912 915 
918 921 924 927 930 933 936 939 942 
945 948 951 954 957 960 963 966 969 
972 975 978 981 984 987 990 993 996 
999 1002 1005 1008 1011 1014 1017 1020 1023 
1026 1029 1032 1035 1038 1041 1044 1047 1050 
1053 1056 1059 1062 1065 1068 1071 1074 1077 
1080 1083 1086 1089 1092 1095 1098 1101 1104 
1107 1110 1113 1116 1119 1122 1125 1128 1131 
1134 1137 1140 1143 1146 1149 1152 1155 1158 
1161 1164 1167 1170 1173 1176 1179 1182 1185 
1188 1191 1194 1197 1200 1203 1206 1209 1212 
1215 1218 1221 1224 1227 1230 1233 1236 1239 
1242 1245 1248 1251 1254 1257 1260 1263 1266 
1269 1272 1275 1278 1281 1284 1287 1290 1293 
1296 1299 1302 1305 1308 1311 1314 1317 1320 
1323 1326 1329 1332 1335 1338 1341 1344 1347 
1350 1353 1356 1359 1362 1365 1368 1371 1374 
1377 1380 1383 1386 1389 1392 1395 1398 1401 
1404 1407 1410 1413 1416 1419 1422 1425 1428 
1431 1434 1437 1440 1443 1446 1449 1452 1455 
1458 1461 1464 1467 1470 1473 1476 1479 1482 
1485 1488 1491 1494 1497 1500 1503 1506 1509 
1512 
CONNECTIVITY vtktypeint64
20 21 82 22 63 21 65 57 64 
58 65 66 64 66 65 23 3 66 
19 18 58 3 19 66 66 19 58 
22 23 64 64 23 66 63 22 57 
57 22 64 67 13 77 14 13 67 
69 56 68 70 68 59 69 70 15 
68 70 69 16 2 70 70 59 16 
17 16 59 2 15 70 15 14 69 
56 14 67 69 14 56 71 17 59 
58 18 71 71 18 17 72 59 68 
73 68 56 60 72 73 68 73 72 
65 58 74 75 74 60 57 65 75 
74 75 65 72 60 74 71 74 58 
59 72 71 74 71 72 76 56 67 
61 76 77 67 77 76 13 12 77 
12 0 78 80 61 79 79 9 80 
8 78 0 9 79 8 78 8 79 
77 79 61 78 77 12 79 77 78 
63 57 81 82 81 62 63 82 21 
81 82 63 84 62 83 10 84 83 
80 10 83 84 10 11 1 20 85 
85 20 82 11 85 84 85 11 1 
62 84 82 85 82 84 10 80 9 
86 83 62 61 80 86 83 86 80 
87 62 81 75 81 57 60 87 75 
81 75 87 76 61 88 73 88 60 
56 76 73 88 73 76 87 60 88 
86 88 61 62 87 86 88 86 87 
36 115 37 38 37 96 98 97 90 
91 99 98 97 98 99 39 99 7 
35 91 34 7 99 35 99 91 35 
38 97 39 97 99 39 96 90 38 
90 97 38 100 110 29 30 100 29 
102 101 89 103 92 101 102 31 103 
101 102 103 32 103 6 103 32 92 
33 92 32 6 103 31 31 102 30 
89 100 30 102 89 30 104 92 33 
91 104 34 104 33 34 105 101 92 
106 89 101 93 106 105 101 105 106 
98 107 91 108 93 107 90 108 98 
107 98 108 105 107 93 104 91 107 
92 104 105 107 105 104 109 100 89 
94 110 109 100 109 110 29 110 28 
28 111 4 113 112 94 112 113 25 
24 4 111 25 24 112 111 112 24 
110 94 112 111 28 110 112 111 110 
96 114 90 115 95 114 96 37 115 
114 96 115 117 116 95 26 116 117 
113 116 26 117 27 26 5 118 36 
118 115 36 27 117 118 118 5 27 
95 115 117 118 117 115 26 25 113 
119 95 116 94 119 113 116 113 119 
120 114 95 108 90 114 93 108 120 
114 120 108 109 121 94 106 93 121 
89 106 109 121 109 106 120 121 93 
119 94 121 95 119 120 121 120 119 
47 46 148 45 129 46 131 123 130 
124 131 132 130 132 131 44 1 132 
11 10 124 1 11 132 132 11 124 
45 44 130 130 44 132 129 45 123 
123 45 130 133 42 143 41 42 133 
135 122 134 136 134 125 135 136 40 
134 136 135 8 0 136 136 125 8 
9 8 125 0 40 136 40 41 135 
122 41 133 135 41 122 137 9 125 
124 10 137 137 10 9 138 125 134 
139 134 122 126 138 139 134 139 138 
131 124 140 141 140 126 123 131 141 
140 141 131 138 126 140 137 140 124 
125 138 137 140 137 138 142 122 133 
127 142 143 133 143 142 42 43 143 
43 4 144 146 127 145 145 25 146 
24 144 4 25 145 24 144 24 145 
143 145 127 144 143 43 145 143 144 
129 123 147 148 147 128 129 148 46 
147 148 129 150 128 149 26 150 149 
146 26 149 150 26 27 5 47 151 
151 47 148 151 27 5 27 151 150 
128 150 148 151 148 150 26 146 25 
152 149 128 127 146 152 149 152 146 
153 128 147 141 147 123 126 153 141 
147 141 153 142 127 154 139 154 126 
122 142 139 154 139 142 153 126 154 
152 154 127 128 153 152 154 152 153 
55 181 54 53 54 162 164 163 156 
157 165 164 163 164 165 52 165 3 
19 157 18 3 165 19 165 157 19 
53 163 52 163 165 52 162 156 53 
156 163 53 166 176 50 49 166 50 
168 167 155 169 158 167 168 48 169 
167 168 169 16 169 2 169 16 158 
17 158 16 2 169 48 48 168 49 
155 166 49 168 155 49 170 158 17 
157 170 18 170 17 18 171 167 158 
172 155 167 159 172 171 167 171 172 
164 173 157 174 159 173 156 174 164 
173 164 174 171 173 159 170 157 173 
158 170 171 173 171 170 175 166 155 
160 176 175 166 175 176 50 176 51 
51 177 6 179 178 160 178 179 33 
32 6 177 33 32 178 177 178 32 
176 160 178 177 51 176 178 177 176 
162 180 156 181 161 180 162 54 181 
180 162 181 183 182 161 34 182 183 
179 182 34 183 35 34 7 184 55 
184 181 55 184 7 35 35 183 184 
161 181 183 184 183 181 34 33 179 
185 161 182 160 185 179 182 179 185 
186 180 161 174 156 180 159 174 186 
180 186 174 175 187 160 172 159 187 
155 172 175 187 175 172 186 187 159 
185 160 187 161 185 186 187 186 185 
31 30 214 29 195 30 197 189 196 
190 197 198 196 198 197 28 4 198 
43 42 190 4 43 198 198 43 190 
29 28 196 196 28 198 195 29 189 
189 29 196 199 14 209 13 14 199 
201 188 200 202 200 191 201 202 12 
200 202 201 40 0 202 202 191 40 
41 40 191 0 12 202 12 13 201 
188 13 199 201 13 188 203 41 191 
190 42 203 203 42 41 204 191 200 
205 200 188 192 204 205 200 205 204 
197 190 206 207 206 192 189 197 207 
206 207 197 204 192 206 203 206 190 
191 204 203 206 203 204 208 188 199 
193 208 209 199 209 208 14 15 209 
15 2 210 212 193 211 211 49 212 
48 210 2 49 211 48 210 48 211 
209 211 193 210 209 15 211 209 210 
195 189 213 214 213 194 195 214 30 
213 214 195 216 194 215 50 216 215 
212 50 215 216 50 51 6 31 217 
217 31 214 217 51 6 51 217 216 
194 216 214 217 214 216 50 212 49 
218 215 194 193 212 218 215 218 212 
219 194 213 207 213 189 192 219 207 
213 207 219 208 193 220 205 220 192 
188 208 205 220 205 208 219 192 220 
218 220 193 194 219 218 220 218 219 
39 247 38 37 38 228 230 229 222 
223 231 230 229 230 231 36 231 5 
47 223 46 5 231 47 231 223 47 
37 229 36 229 231 36 228 222 37 
222 229 37 232 242 22 21 232 22 
234 233 221 235 224 233 234 20 235 
233 234 235 44 235 1 235 44 224 
45 224 44 1 235 20 20 234 21 
221 232 21 234 221 21 236 224 45 
223 236 46 236 45 46 237 233 224 
238 221 233 225 238 237 233 237 238 
230 239 223 240 225 239 222 240 230 
239 230 240 237 239 225 236 223 239 
224 236 237 239 237 236 241 232 221 
226 242 241 232 241 242 22 242 23 
23 243 3 245 244 226 244 245 53 
52 3 243 53 52 244 243 244 52 
242 226 244 243 23 242 244 243 242 
228 246 222 247 227 246 228 38 247 
246 228 247 249 248 227 54 248 249 
245 248 54 249 55 54 7 250 39 
250 247 39 250 7 55 55 249 250 
227 247 249 250 249 247 54 53 245 
251 227 248 226 251 245 248 245 251 
252 246 227 240 222 246 225 240 252 
246 252 240 241 253 226 238 225 253 
221 238 241 253 241 238 252 253 225 
251 226 253 227 251 252 253 252 251 

CELL_DATA 504
SCALARS scalars double
LOOKUP_TABLE default
-9.4179758037 1.7478464748 7.8544995302 7.250594115 -6.9310633399 -6.9831705255 -6.3468449078 7.9161128952 -8.4542630294 
7.734593399 9.9446538978 9.9079898159 -7.5299574958 5.9298987322 -6.342956642 4.7367150898 7.6500053059 -5.856671314 
-4.1122114494 -4.9701962853 7.8933511937 -6.4064113284 1.1293387717 6.2768215359 0.27097635295 -0.19929544255 1.9459792037 
3.3512350676 6.7854674121 -0.24046600245 -9.188261706 4.6704870606 1.4470220723 3.2507294702 1.9396518067 -8.5784443923 
-2.9972495362 -1.5071816982 -0.18279201601 -1.2766233279 0.17979777585 1.8604185653 -3.6071757362 -2.0045775587 -4.1363433002 
-7.7315754441 -6.7107323069 -2.4665729734 2.136281657 -0.53824905464 -3.0528457027 -0.90870462079 3.6741571227 8.5397890265 
-9.7029632308 -7.8083733512 -8.3364415111 8.4713543838 -3.6786060514 -6.56458346 8.0455004276 -1.943362877 9.8540470246 
9.4634075695 -0.59342994082 -9.1608437728 8.6014400383 -9.2830193903 5.9074041531 -2.2988659834 -7.4038447603 -3.8981792002 
-9.6355931141 9.6682665161 -7.2362211183 9.9463628372 5.1371125614 -7.461878305 3.5080366499 0.4392431516 7.338936062 
-3.6641960261 9.7095932285 3.2216140643 -6.7028793946 2.3404613322 -9.259082597 -6.6055982043 9.4088707396 -0.7876900372 
8.170753913 -7.2881400577 4.5736764212 -3.2986212203 -5.8484838471 -8.5926835938 8.5634950657 9.5407703426 3.4930044076 
-8.2301773716 0.27250159468 9.865391613 7.0019759357 -5.6942484697 8.4987712564 3.723147224 -7.6866164958 -9.6827276103 
9.3107605401 -8.9862803771 -2.5441050916 -1.7239715857 -9.1016851613 3.2070634309 8.4124528856 2.2439253397 -8.5147532128 
8.3683734611 6.5999922792 9.3845995103 -9.427031768 2.81623832 -4.2353788912 0.43217697323 -2.746891863 -2.7422181833 
3.2266343917 -1.8397959698 6.6238118451 -9.9758465085 -8.9581602579 2.2567738375 0.68982172474 -2.9908333085 0.74862610615 
3.1032587887 -7.7064235568 -3.5565122228 9.9792040135 9.4718552638 9.7528330095 -9.9016798884 -2.0341646108 2.1215753547 
4.0473105873 -6.4571935083 0.73909444227 2.1827112971 6.1831822457 6.0896989872 8.135311241 -7.5015408862 1.2061283745 
7.0396039513 8.900986314 -7.5846162899 3.7122874973 -9.8675761003 3.9102402126 -8.4625016509 -9.488001414 6.5216718272 
1.6932741818 -3.8674134733 -3.2446315937 9.478701306 3.385084982 -8.5035501222 1.8660598316 -1.5475116227 -1.7209908233 
-3.6124371539 4.7407236525 1.2207057713 6.3223913402 5.632446244 -5.7083696338 -3.3314298405 -2.1150168885 -1.2868616414 
5.5940369639 3.4655301544 -2.7352721731 -3.6043018223 -0.49337270386 1.3222201919 5.967311032 -0.4529185314 1.7575947101 
3.599376792 -7.6347228821 2.5727556032 -3.6528380339 3.0325368484 -0.40113169015 0.81908735892 -8.7896588609 -0.2180281441 
1.1554986991 -3.1393748634 -1.6628875057 -2.7006567065 1.739421755 3.8544141761 -0.70964774322 -3.0202051476 -1.2732439279 
3.3887779898 5.6498387133 -2.970762034 5.9276089579 5.4542146789 -4.2466049611 5.802500429 9.1995296926 -8.7542647665 
0.28011723965 2.205503297 0.92096761494 -9.0924124405 -1.3153471378 -3.0837954002 -1.4297549954 -3.3183894113 -5.6525966361 
5.1034910093 -8.2152521119 6.2128806027 -6.3025148597 7.191689664 -2.8067090227 -2.810764392 -3.7502651062 -2.7986429289 
-1.3204827581 1.7791924331 7.3907949109 0.16687523667 -4.8165751516 1.5195274808 4.1607325904 -2.0417420519 5.1766632983 
-3.0844453478 -9.4173467863 4.9255454382 4.213361467 -8.5730912246 -2.921615878 8.0017132486 -4.717519026 1.3249854087 
-8.1525172627 2.9908314741 0.62315195351 3.0199131645 -5.9845853492 -8.2233983106 5.6345998267 -7.124920774 7.8579613206 
4.4292292448 8.686611044 1.0995445395 -3.6707809013 6.9830896136 -5.0758985132 3.6387471389 -5.6433563752 -0.11335388623 
-3.5564164748 2.8972240176 8.5745934692 3.4210092711 2.5920565944 1.8277363488 -2.3627896757 0.5771137438 -2.0790081911 
-0.8535467344 -9.6909560775 3.984372355 -0.67882378284 1.3888971548 -3.5613643016 2.6299435567 -0.57982079032 -3.1807594765 
0.81654983576 -2.7586045115 -0.99847768493 3.9074667869 4.7271954318 -1.866743429 4.9858769552 8.5166732143 6.8682523603 
-5.7794394965 -9.8685482786 2.8224498839 -0.11761380917 -4.8438580597 9.6508086095 -4.4225953647 -3.4129304473 4.3645652139 
0.77947718402 1.2759401966 6.3069622115 -0.07863031282 8.4944999487 -6.396509621 6.0113382989 7.1450542554 -2.141844317 
7.8759428957 8.2368368448 -9.1388227034 -7.8764910697 7.8870905284 -1.3444441347 -7.1522037843 4.6315470455 -2.6891960271 
7.1883206817 1.3960342378 -5.277235846 1.7171155077 -4.0845743363 -0.64315668783 -1.8585511152 6.2933929606 -9.7353385818 
-0.075690005051 -3.9737162568 4.3655358669 9.3844376818 -1.7015201852 -9.005620592 -6.7064363292 8.7436450789 9.8847420761 
3.7934845852 -9.8899200912 8.7564450727 -7.7142217399 -9.8270760288 -9.6655658196 7.3514508434 -3.2282257905 4.588645612 
-9.7192649893 -9.6978191038 -7.3215131632 9.5107640676 7.1370267177 -6.5816319455 1.2020149187 7.5846272315 8.5070858378 
9.9340671539 -9.9409513227 -1.2158918705 -0.48492867255 1.0426965507 2.1041175698 8.180124509 -2.631227529 -0.43587320522 
7.4521342543 8.8592217967 9.7801466523 -9.6872692931 -8.7133113376 -8.4733291964 7.6189875102 8.4642809348 2.0624896158 
-4.223474165 -0.22005190593 -6.2840798479 -2.35558735 -3.6798287126 2.326643258 1.2099914917 -2.177436969 -6.6554297357 
3.8705354045 6.7832290747 1.3032978941 9.8166597145 7.9723850352 7.8726862078 -8.8181578675 1.0649566734 -6.6331250496 
0.71965418632 -6.5825036067 -4.7442020119 -7.7336315842 5.1921021764 4.7847430452 -7.2562896267 7.3217906744 8.4208143504 
3.2917635511 4.9097247631 -2.432626947 9.3720058916 -9.9821138722 8.2051586773 -9.9886702365 -4.231563908 4.7644809938 
-3.1924825328 2.779170055 -8.0444792126 3.4805434526 5.4470578619 -9.5167930422 -0.098810896407 -3.0845912166 9.9430595004 
6.6348002003 -7.9036304876 -2.0980561572 -3.9583092323 2.4710973046 -4.4822166933 6.9298393286 4.4724472633 9.5969611905 
-8.3210276995 -3.6626850121 -2.8043023561 4.5371209859 -0.55736588092 -9.7932130418 -1.8107467237 0.90413400715 -4.0140185394 
-6.9172609358 -9.9908657917 9.1056024144 -9.3843810797 9.5651992862 2.1615182687 4.6675787326 2.8548089471 9.1648265133 
-2.1617109184 -5.2324521683 2.5891072114 -3.302445233 0.52633717798 -8.3064839071 -0.6623570362 5.820972007 3.3433033906 
8.1870673769 -6.7167678206 -9.3065827595 6.8105996076 -4.4351510107 -8.8519965937 7.6657774916 2.7671677411 4.8159921643 
8.6670701519 -6.8207926719 -3.8709071078 9.2785659783 5.9851118333 -2.0491384951 -9.9668146955 -8.4304542883 -8.7239845864 
9.9700388438 0.82375393696 3.1632787829 -3.6340660681 2.1276763584 0.52049547213 6.4607741545 -6.9830562902 1.9739377968 
5.3137613168 -4.6477017862 -9.7939682168 0.60485760151 -2.3443806922 0.35873051926 -8.7643722986 8.6856392928 -7.1411592958 
9.616099262 -3.0461308349 -2.8510005131 8.5707513732 -7.0230912444 4.334987751 2.468917719 -6.4237383431 8.8291102421 

