# vtk DataFile Version 5.1
vtk output
ASCII
DATASET POLYDATA
POINTS 356 float
0.473491 0.557952 0.225085 0.533313 0.596177 8.85628 0.558646 8.55608 0.24929 
0.888957 8.2814 8.64905 8.7212 0.772324 0.261526 8.66645 0.809273 8.75313 
8.82957 8.44524 0.343471 8.62341 8.34283 8.66617 -0.0524076 0.00526527 1.04901 
-0.436546 -0.218542 2.48464 -0.642898 -0.347416 4.11495 -0.580428 -0.426635 5.72768 
-0.395935 -0.114193 7.15614 -0.0476799 0.227787 8.19319 -0.13314 1.25434 0.0312677 
0.0305241 2.54548 -0.402152 -0.349878 4.11943 -0.385535 -0.205002 5.80872 -0.337757 
-0.265329 7.13995 -0.0975381 0.44674 7.93503 -0.184843 0.473872 8.62964 1.35025 
0.011162 8.8228 2.6543 -0.0739417 8.91217 4.23022 -0.0041783 8.78609 5.61322 
0.0587135 8.87751 7.03387 0.491397 8.74037 8.07648 0.306637 1.37787 8.84836 
0.0128578 2.5419 9.36418 -0.354365 4.13427 9.42097 -0.176468 5.81665 9.14846 
0.00787356 7.07239 8.96741 0.441358 7.96316 9.08514 9.00632 0.242079 1.11551 
9.0429 -0.108289 2.45836 9.18576 -0.301881 4.0897 9.0682 -0.213574 5.67422 
9.06013 0.0227779 7.11378 8.92935 0.456949 8.18424 8.88961 1.27133 0.367315 
8.96709 2.40874 -0.37281 9.09795 4.07484 -0.324376 9.15428 5.74364 -0.331336 
9.20272 7.08173 -0.0422123 8.71013 7.90007 0.156126 8.82376 8.78309 1.16906 
9.03859 8.80987 2.59548 9.10291 8.78808 4.11444 8.97659 8.88815 5.66931 
8.99943 8.76819 6.96906 8.73174 8.60389 8.08063 8.91412 1.45453 8.81222 
8.8456 2.61352 9.03408 8.94482 4.0733 8.96975 8.98286 5.58718 8.99817 
8.98621 7.01804 8.80323 8.89307 7.95177 9.07465 1.36875 0.380934 -0.353216 
2.60235 -0.138381 -0.167604 4.44024 -0.119753 -0.491584 5.92281 -0.0794251 -0.426792 
7.17882 0.111371 -0.414116 8.13034 0.366631 -0.0239639 1.44222 0.626507 9.24502 
2.61608 0.00519517 9.05842 4.30282 -0.0522773 9.21028 5.8458 0.0977853 9.13155 
7.14864 0.330277 9.19654 7.94359 0.641961 8.99764 1.35391 8.6119 -0.254057 
2.49714 9.09407 -0.258293 4.3219 9.16942 -0.497745 5.90471 9.1667 -0.591355 
7.20141 8.83995 -0.384767 8.05562 8.62224 0.0109872 1.33733 8.5557 9.04837 
2.64459 8.95067 9.03314 4.37386 9.04192 9.16026 5.87548 8.90654 9.2737 
7.23157 8.8273 9.3464 8.12716 8.59718 9.08658 -1.13312 0.193095 4.98988 
-1.35112 6.10957 1.70129 -1.34277 6.05369 7.66551 -0.608961 0.700432 7.63167 
-0.610037 0.584006 1.85702 -0.684073 3.23865 8.48754 -0.00183212 8.04924 8.56406 
-0.822828 8.15341 6.38556 -1.01017 3.19064 0.314242 -0.738212 8.06377 3.39412 
-0.264148 7.98072 0.566837 -1.91104 5.8299 4.90797 -2.01721 2.89231 3.15506 
-1.83244 2.84697 6.46123 0.037333 0.826415 8.48819 -0.923042 0.39223 6.53361 
-0.9063 0.393645 3.27472 0.110266 0.945511 0.745739 -1.15375 4.7913 8.49631 
-0.909717 6.16494 8.54137 -0.835927 7.19486 8.15118 -1.30246 7.14956 7.04598 
-0.406063 7.97733 7.49966 -1.17364 4.75811 0.634144 -1.09566 6.20806 0.455323 
-1.30216 7.17499 2.5772 -0.764812 7.09492 1.25512 -0.596613 8.09608 1.91643 
-0.974441 8.15987 4.91196 -1.56397 7.29931 4.23307 -1.86931 5.94025 3.22376 
-1.37128 7.09417 5.64364 -1.79934 5.95961 6.51112 -1.84447 4.53888 2.41693 
-1.50985 2.97765 1.59735 -0.855541 1.2685 0.926981 -1.51914 1.01177 2.48739 
-1.46548 0.94525 4.15769 -1.58714 4.48296 7.06942 -1.59628 2.9662 7.69381 
-1.59727 0.899745 5.72511 -1.29101 0.978368 7.12342 -0.718902 1.34632 8.53427 
-2.09803 2.7533 4.88494 -2.07006 4.43399 5.77195 -2.07333 4.44064 4.19336 
9.86264 0.385308 4.86382 9.88753 5.8923 1.70811 9.73004 5.96243 7.59694 
9.38127 0.748214 7.68713 9.57101 0.73892 1.70036 9.6162 3.26741 8.58571 
9.02184 7.75335 8.47073 9.58214 8.03602 6.32167 9.34795 3.18177 0.547102 
9.50166 7.95229 3.36775 9.08931 7.7678 0.763726 10.0518 5.73642 4.89962 
9.93994 2.94058 3.21619 9.99729 2.93709 6.32239 8.99756 1.04029 8.44017 
9.75002 0.464458 6.44824 9.61009 0.460679 3.2983 9.14613 0.854435 0.587218 
9.70233 4.67908 8.38395 9.68345 6.11629 8.55548 9.53807 7.06271 8.05866 
9.8473 7.04387 6.93617 9.29652 8.00189 7.57206 9.71314 4.67445 0.872446 
9.28065 6.11323 0.750422 9.56163 7.03145 2.66545 9.55993 6.99753 1.26638 
9.47346 8.02512 1.8227 9.54364 8.08549 4.91301 9.86614 7.04087 4.17265 
9.90729 5.75958 3.33646 9.66406 6.93175 5.65392 10.0331 5.78001 6.41383 
9.6115 4.50497 2.56776 9.87494 3.06748 1.68401 9.51397 1.53478 0.946749 
9.32172 1.32232 2.58358 9.50043 1.19629 4.08625 9.98828 4.41795 7.01435 
9.55914 3.0676 7.48056 9.42725 1.20889 5.66231 9.60135 1.27627 7.01131 
9.55623 1.43487 8.22097 9.84748 2.73378 4.87135 9.83267 4.39062 5.60593 
10.0915 4.28072 4.04313 3.90384 -1.55191 1.54363 3.95599 -1.38152 7.78348 
8.9081 -1.13628 4.9166 8.7833 -0.52184 7.93678 8.78501 -0.648682 1.54764 
6.58415 -0.61843 8.6531 1.45288 -0.042483 8.4661 1.14711 -1.041 6.45953 
6.73882 -0.83168 0.314909 1.1339 -1.15917 3.31501 1.45581 -0.0843356 0.678093 
4.08914 -2.08753 4.99729 6.81983 -1.69122 3.21805 6.85188 -1.63099 6.59748 
8.48355 0.209151 8.84736 9.00668 -0.972306 6.52448 8.97232 -1.04195 3.19365 
8.61031 0.0661903 0.365788 5.27807 -0.936198 8.40865 3.81512 -0.730827 8.47666 
2.65016 -0.998659 8.16617 2.57128 -1.25469 7.08997 1.25985 -0.762307 7.71105 
5.2725 -1.16246 0.669061 3.79806 -0.862759 0.422087 2.56293 -1.39555 2.6315 
2.55936 -1.13433 1.09092 1.21167 -0.848788 1.79295 1.07405 -1.24544 4.97992 
2.59985 -1.72342 4.10628 3.98762 -1.91264 3.17887 2.60596 -1.6781 5.7928 
4.02078 -1.77227 6.62519 5.43772 -1.78944 2.42026 6.69264 -1.3383 1.51454 
7.99766 -0.437548 0.808812 8.03422 -1.04487 2.39386 8.23373 -1.42483 4.08117 
5.45421 -1.56671 7.24452 6.76294 -1.12335 7.84007 8.13687 -1.21959 5.77514 
8.11435 -0.902257 7.2532 7.95374 -0.17038 8.28172 6.85005 -1.89586 5.00397 
5.45422 -1.89769 5.85777 5.52562 -2.0769 4.03827 3.88349 9.76341 1.91763 
3.89287 9.74677 7.52419 8.76715 9.52556 4.78817 8.72661 9.33145 7.68432 
8.51498 9.07294 1.8579 6.69747 9.56732 8.80008 1.3098 9.06291 8.45831 
1.12264 9.40665 6.36625 6.72611 9.48219 0.510051 1.13604 9.42309 3.3381 
1.25868 9.19827 0.699705 3.9964 10.2751 4.86084 6.81724 9.74658 3.29395 
6.79957 10.0233 6.37362 8.50464 8.85479 8.78245 8.65406 9.35258 6.39873 
8.72029 9.40391 3.32906 8.42115 8.76665 0.605267 5.29637 9.716 8.39765 
3.74386 9.78348 8.60513 2.55037 9.49278 8.11496 2.47685 9.95969 6.98591 
1.2772 9.22713 7.44724 5.20483 9.62294 0.801728 3.69509 9.71986 0.553678 
2.44704 9.97933 2.66225 2.51448 9.59287 1.17676 1.1796 9.3337 1.98709 
0.954135 9.57935 4.89541 2.43265 9.86086 4.22886 3.95511 9.95279 3.27677 
2.45053 9.88007 5.51171 3.9931 10.0426 6.3568 5.47869 10.142 2.53247 
6.79496 9.67394 1.8217 8.02524 9.33256 0.985485 8.10389 9.48959 2.54264 
7.9681 9.52009 4.09638 5.42614 10.0619 7.06794 6.82392 9.5824 7.62283 
8.08213 9.48961 5.69095 8.02887 9.53461 7.02223 7.92433 9.13825 8.18882 
7.02864 9.98074 4.92143 5.39133 9.93472 5.54865 5.54551 10.0937 4.15475 
1.61768 3.85361 -1.61478 7.75499 3.81091 -1.67347 5.09494 8.87607 -1.31481 
7.9453 8.55962 -0.834661 1.79806 8.52572 -0.887167 8.39841 6.55239 -0.718488 
8.41118 1.49843 -0.419199 6.46308 1.07131 -1.13457 0.397474 6.60154 -1.02384 
3.45693 1.05145 -1.26291 0.864529 1.4469 -0.454465 4.96607 3.95666 -2.07269 
3.19874 6.76843 -1.94215 6.6561 6.79722 -1.84554 8.67007 8.39055 -0.224439 
6.60339 8.77513 -1.12804 3.40399 8.75395 -1.09305 0.890803 8.24462 -0.251401 
8.5143 5.14236 -1.2883 8.40017 3.68875 -0.875585 8.13823 2.49823 -1.13164 
7.01918 2.4872 -1.46872 7.61123 1.25747 -0.873778 0.662641 5.12327 -1.32057 
0.546586 3.65135 -1.06144 2.66259 2.46907 -1.57935 1.24054 2.52708 -1.27415 
2.00601 1.39296 -0.770831 5.11011 1.07126 -1.18362 4.16504 2.48232 -1.78377 
3.22335 3.99429 -2.0265 5.80128 2.43158 -1.83431 6.48815 3.91052 -2.0468 
2.46355 5.33639 -1.9947 1.64613 6.63603 -1.4094 1.14463 7.76784 -0.733763 
2.62451 7.97767 -1.32295 4.24025 8.10844 -1.51551 7.01143 5.35526 -1.60159 
7.75888 6.76839 -1.54798 5.88119 8.06754 -1.47694 7.14055 8.08063 -1.13996 
8.43941 7.82733 -0.655593 5.00313 6.84787 -1.96584 5.75517 5.50864 -2.19864 
4.08415 5.46175 -2.17611 1.77075 3.8268 10.1187 7.57105 3.94329 9.79413 
5.0658 8.66684 9.80875 7.69372 8.30842 9.43474 1.94992 8.41026 9.48339 
8.6944 6.55991 9.68961 8.50413 1.43634 9.31386 6.4291 1.18111 9.78368 
0.727014 6.44365 9.42538 3.54898 1.25927 9.61439 0.870957 1.49931 9.28253 
4.93929 4.02694 10.1176 3.31633 6.70396 10.0143 6.51778 6.72953 10.0957 
8.53654 8.21069 9.12903 6.57088 8.59993 9.80221 3.45573 8.63109 9.7196 
0.900477 8.18654 9.18478 8.38595 4.95816 9.67857 8.5433 3.60201 9.69382 
7.9875 2.6158 9.59108 6.9695 2.55919 9.89432 7.54108 1.41421 9.38196 
0.763726 5.04345 9.7855 0.797657 3.66119 9.4366 2.66568 2.53762 9.78223 
1.25607 2.6098 9.87529 2.04692 1.38889 9.49886 5.02402 1.12041 9.62227 
4.11422 2.48034 10.1687 3.36112 3.9831 10.1859 5.64943 2.53992 9.87416 
6.41732 3.93505 10.2928 2.5258 5.39109 9.87789 1.69415 6.66227 9.93468 
1.23552 7.67003 9.44917 2.7421 7.8264 9.54592 4.27199 8.03767 9.96049 
7.04502 5.28704 10.0448 7.61007 6.60748 9.68147 5.79685 7.97597 9.69019 
7.14853 7.8945 9.85698 8.23518 7.77085 9.48135 5.10272 6.79494 10.0173 
5.66443 5.37297 10.0219 4.08412 5.51398 10.2929 
POLYGONS 709 2124
OFFSETS vtktypeint64
0 3 6 9 12 15 18 21 24 
27 30 33 36 39 42 45 48 51 
54 57 60 63 66 69 72 75 78 
81 84 87 90 93 96 99 102 105 
108 111 114 117 120 123 126 129 132 
135 138 141 144 147 150 153 156 159 
162 165 168 171 174 177 180 183 186 
189 192 195 198 201 204 207 210 213 
216 219 222 225 228 231 234 237 240 
243 246 249 252 255 258 261 264 267 
270 273 276 279 282 285 288 291 294 
297 300 303 306 309 312 315 318 321 
324 327 330 333 336 339 342 345 348 
351 354 357 360 363 366 369 372 375 
378 381 384 387 390 393 396 399 402 
405 408 411 414 417 420 423 426 429 
432 435 438 441 444 447 450 453 456 
459 462 465 468 471 474 477 480 483 
486 489 492 495 498 501 504 507 510 
513 516 519 522 525 528 531 534 537 
540 543 546 549 552 555 558 561 564 
567 570 573 576 579 582 585 588 591 
594 597 600 603 606 609 612 615 618 
621 624 627 630 633 636 639 642 645 
648 651 654 657 660 663 666 669 672 
675 678 681 684 687 690 693 696 699 
[...]
CELL_DATA 708
SCALARS scalars double
LOOKUP_TABLE default
-5.5665464124 -2.5948207956 -6.2477432933 -5.5616128872 -6.0619762515 -6.682342599 -4.4874882739 -5.2134072551 -4.7537201509 
-5.5674321254 -4.1660746314 -2.5534385715 -0.34876056059 -4.4429769769 1.4494738653 0.82899454628 -2.1153447912 -2.4895172502 
1.9851336961 1.8705494528 2.4159140292 6.1478586603 5.8542701607 6.3062615665 8.8814746665 5.6932428143 5.7152489321 
6.6850709858 6.6618103422 2.6132119956 2.1877064395 2.8638237737 3.1269126125 -1.4153464436 -2.7675629261 0.2819490395 
0.5281841107 0.82838494997 -0.54035193833 3.4485498096 5.7679336115 3.2008061139 3.8494001156 6.6101182509 8.3100768037 
7.9710057777 7.7517787933 6.7333356163 2.5959851099 4.5712830441 5.4363993189 1.095723767 5.2788510992 4.8723336961 
8.1736808041 7.8062047463 6.3311573189 6.9830640383 8.0026957537 2.7437400663 2.2579390797 3.3556925502 4.4502606527 
3.7554471423 2.2695743096 3.7333162451 3.0052604402 4.0421539029 6.3968895799 4.5193071136 1.4087872021 -0.22327842315 
-0.40005246248 -0.14759012515 -1.1091302751 -6.613557058 -5.4006804434 -2.627786374 -8.9728135831 -6.5926543843 -5.2799250058 
-7.0756478653 -7.15229011 -1.3752497045 -1.9497429517 -1.8139585997 0.42088705417 0.80048339332 -1.8938617154 1.1519484223 
-1.9862760838 -5.8549974038 -5.0566833172 -6.5553129981 0.29902184651 -4.0493594784 -6.8735341054 -1.7750039876 -4.4068966011 
0.30678931458 -2.0535039847 -2.5422625367 -4.8186194197 -1.826055849 -3.0464866185 -2.969989476 0.11001752316 0.052615555741 
1.4766919237 -0.027536345479 0.47919797807 1.2435129027 1.574744403 0.54201535771 1.1474026917 -0.046600863276 -0.73331294896 
0.15510686474 -5.0535220974 -3.335911536 -2.7630860007 -7.7308755824 -1.8855983062 -7.4872236803 -5.8715942613 -1.9466079293 
-5.881320179 -2.0891923137 -6.3416738279 -3.8075350492 -6.1347102179 -1.0065400081 0.074674444021 -0.89097268513 0.041496633368 
0.8245613634 1.1844681636 -0.30359429737 0.5707759863 4.0581234635 3.7482747165 3.5756939169 5.6183159856 4.9081356527 
5.2625874377 4.4216974945 4.4799781095 0.40909426413 1.6295542607 2.2853897599 4.0499347507 -0.64078430877 0.0026263136398 
2.1319158629 -1.3504725696 -0.32071907824 2.6630684433 2.8124441731 0.76075862137 2.8341993195 0.85614735688 4.5297548474 
3.7694171 2.9355913459 5.7688391076 4.7971005858 4.0192953899 0.40305115201 -1.4369353146 -0.11761179186 -0.036455477687 
5.4375680664 5.7824855554 5.995811842 2.1098784223 4.7631953856 5.5667259745 2.671996134 0.90831613067 1.5929083363 
1.651921083 3.0691817427 0.42622139835 2.0654631902 2.196193671 0.88449785981 3.2929346054 1.9540440487 -1.6984552729 
-1.2580950706 1.9530329517 1.3627219868 -4.192871977 -0.39406328066 -3.7609596453 -3.060465775 0.25526946919 -1.2403434234 
-1.7186514247 2.4479714312 2.0211078505 -3.3293546361 -0.10849193632 -2.6419982136 0.93208110916 -1.650756886 -0.66470274756 
-2.1813087527 -2.7332221014 -2.108907418 -3.9716470798 2.6925516211 -1.7480736467 -3.8680277104 -3.0046905109 -3.424135402 
-4.7057443876 -0.23255378685 -0.72396934908 0.14271092854 4.3781795328 -2.9284869791 -2.3237970222 -2.4268354231 0.57777845048 
0.72582960024 -1.5223274752 -0.80223334076 0.76266269155 0.80342227316 -2.1241587176 -0.31631393553 -0.72003411496 -1.3562495503 
0.57877339547 -0.65480700988 -2.73552857 -1.7907043274 -4.4907740765 -0.63042710027 -5.4714988639 -2.3771350857 -1.9295028018 
-6.1107176746 -1.5660349776 -7.1871659312 -2.8553165816 -8.0686444171 -2.0511384024 -2.0101101043 -6.0088015924 -7.344538726 
-7.0985745073 -5.186540417 -5.6691794039 -7.0161046368 -6.0617942654 -9.4815652985 -6.3754950674 -9.4173199568 -9.4059515916 
-8.7649117113 -7.9305810393 -7.3881909156 -6.6874707994 -7.2867560062 -7.304509328 -6.3326655083 -6.6450560498 -7.3718990038 
-6.3835563602 -6.6846405838 -8.524209651 -7.0798868832 -7.2497380941 -7.5913233847 -9.5655060909 -9.4489328459 -6.9081226745 
-9.4557845097 -8.7916555298 -7.8972217351 -8.4975072426 -7.5004007115 -8.6416689458 -8.8359443189 -6.9328476089 -8.5227001279 
-7.7089871732 -7.3133647019 -8.7534075198 -9.1126242268 -8.7595002213 -9.4550725547 -8.9692567962 -8.911751461 -9.4365170353 
-9.7837479248 -9.4285837153 -9.1814351907 -9.6867499399 -9.2502375302 -9.25702237 -9.672059349 -9.2933456674 -9.420789529 
-9.5820195451 -9.3884302828 -9.1674512156 -9.5826682674 -9.3510526297 -6.8370338464 -4.7289683729 -9.149722327 -7.2366520061 
-5.4359103172 -6.0000181979 -9.4916033814 -9.2960297344 -9.1509811227 -8.4947099341 -8.5034618133 -8.7320535091 -9.1379075245 
-8.3488791082 -8.7199924602 -8.899283076 -6.1359451145 -7.1050699646 -9.7296206565 -6.2095684123 -8.3755564745 -8.1783054928 
0.55103206657 -6.312298184 -7.4109616124 -8.7304029541 -7.2887023971 -9.5968202044 -9.0941760318 -9.6122239733 -9.079090829 
-9.7077146609 -9.4757005727 -9.8150168525 -9.7193417307 -9.6798229538 -9.9421530175 -9.7642268543 -9.846237625 -9.9212661012 
-9.6957837981 -9.8144060826 -9.9298787789 4.4071518893 1.6458877276 7.1613080113 5.331166658 7.4857594317 3.7478186404 
1.4387555459 7.8309922314 5.0012292399 7.9803227961 8.2620099559 6.9356046878 8.2286414675 8.3269326397 8.3756903141 
9.988097288 6.6153991172 5.8977264607 6.8207676628 5.4669557006 7.3957701661 9.2392942654 9.453581024 8.6831662284 
8.4828454282 9.2154232563 9.002166509 4.5546082723 8.9115405798 7.3566856829 9.7529121865 8.4449090506 7.7375768127 
5.0483490695 8.4398537916 8.4447584503 9.9662144972 9.5442221073 9.475973358 9.0757367952 9.6784081228 9.0392095927 
9.5931260456 9.0999870658 8.9786648254 7.545454581 7.7129592053 7.6444599646 7.9734214972 8.9770685619 9.3138227308 
9.9321931072 9.1210706168 8.5502591622 7.8767210554 8.1583036194 8.8546690735 9.3045763177 8.6984021883 8.027066802 
9.8709152849 9.651325613 9.9707598803 9.3175186739 9.7117613062 9.6706862234 9.9571279975 9.6768467679 9.5774062081 
9.6286970593 9.8127248356 9.556988861 9.8703746156 9.4941713599 9.3679638138 7.3595141455 8.120083646 9.808783165 
6.9622610098 7.4495403976 7.0352758257 9.892612095 7.8375122293 9.8465979164 9.7419885683 9.744453126 9.6290210769 
9.2705185003 9.9482776239 9.3940562479 9.2618307199 8.0096319064 7.3962041622 9.6563957123 7.1824477065 8.3499309473 
9.472317846 -0.26725423348 8.3398233763 9.3478401811 9.2560829393 9.2174179017 9.9947109884 9.1565152858 9.3599012055 
9.0243968326 9.9644492842 9.6386831358 9.7486433441 9.960621899 9.6152480344 9.7952536878 9.7502491412 9.9370063946 
9.7608384252 9.7440847808 9.9848409208 9.9322415738 5.2800235716 9.4170012049 5.1060490867 9.1149662488 5.6062503611 
9.3504660892 9.5011264469 6.7696313467 8.8028739792 6.9269334444 8.5534500184 5.2486136083 5.5721817731 5.8046078816 
5.4433457944 -2.3746814979 -2.4891499795 1.5282455761 3.217554916 -0.26790674619 -0.3059993189 -2.959698142 -3.8514081654 
-3.1693328586 -3.0697503284 -4.436714667 -4.723112699 -3.9214792853 -3.9375768914 -4.1183058818 -0.34567830441 -3.3930723847 
0.09828167733 -1.6147069464 0.73976173093 5.0910143097 -1.2238626465 -0.018968349672 0.81153067356 -0.8659171994 -1.8562328466 
-3.9805492012 -5.2864362749 -5.0731298834 -6.1926521041 -2.1692273861 -4.911327418 -3.3564849235 -3.7220030533 -4.634242778 
-3.7812696769 -1.0354688127 -2.0454153362 -1.4757245927 -2.4959576484 -5.3405638221 -5.5275452849 -2.8326874176 -5.2151452197 
-5.2319051644 -1.9603984069 -1.7655889716 -2.3501079585 -3.2490915048 -1.4781863048 -2.8255067023 -2.6604476115 -1.7343018117 
-4.4465967542 -3.6296348106 -4.141503001 -0.42898642901 1.367296283 2.0485969097 1.8272028188 3.7686399974 4.8063886557 
3.977023916 4.9955997816 6.0721609331 6.4260937732 4.0824112056 1.4630565839 3.000165673 3.9717854263 3.3893869963 
1.5184453295 -0.99359267124 2.8281080199 -0.65850518108 3.9945224374 6.1273664259 7.0287790627 2.1010756957 0.17557558102 
6.2296380887 0.076523382285 -1.215153522 -1.5584366524 0.04597480569 3.9266323017 4.3537129533 2.2306523025 3.2169211331 
3.2198712423 3.5272225236 -0.4854776014 1.8386689213 -0.8808649677 1.1612782307 0.96902940129 -0.84978042571 -1.1166640568 
-0.37760271032 -0.75154329467 1.6297763151 2.1278578015 1.6150596999 4.3969599841 7.0523484644 4.0674273246 8.7908058699 
3.3307461196 8.8470558131 4.543962326 5.9710567845 8.6280520362 4.199844341 7.7970199458 4.1796093596 8.7247879577 
7.7778277721 -1.8131953323 0.24042252793 1.0342389652 0.43088234676 -1.5998496837 -0.39647638402 -0.31295913139 -0.5591674419 
-1.9749696763 -2.1820962029 -2.6726851161 -2.8744749828 -2.7498435463 -5.6047528987 -4.1328679642 -0.74762622466 -1.3408028263 
0.41348763786 -3.6645729268 -3.360961848 1.8844801318 1.5981115645 -2.1911980257 2.157177941 1.8872997385 -2.4577072647 
-2.1743844374 -1.9165660817 -4.0572422741 -2.6452764256 -3.4299232451 -1.6825302612 -1.6010513857 -2.7998719341 -3.0760951052 
-3.3931924632 -3.4831785941 0.84082526248 2.0929018712 -0.4279355687 -4.538306426 -4.8239174197 -5.360312209 -2.9827788479 
-3.1232523019 -3.7568955429 -2.6225217647 0.10053755867 -1.4146203927 -0.74506628851 -2.1958941673 -1.0568303956 -2.8205513435 
-0.69326178402 -1.2748215362 -3.9668238544 -2.5275377925 1.9356500821 2.0474386921 -0.7521449544 -0.69726190806 0.70615764635 
4.0921349938 2.4144090215 2.569571699 3.1004065648 6.0633913352 0.26898654656 0.17457781235 3.6043463744 1.8686106547 
3.9470697521 -0.85121187295 0.99812538195 -0.054024779552 1.3562878902 2.5312865209 3.9788517078 4.3188082558 -0.24424244865 
3.8285778384 4.4168379071 4.147544042 7.4195851704 3.8536516399 1.6950873199 -0.0035387870575 -0.12225986279 0.16419362235 
2.8831049584 0.43072015869 1.6373684158 -0.42285621261 -0.15887709184 1.2872549184 1.8262298162 0.57123227955 -0.91043138467 
1.7972236964 0.55954018321 -0.19999674871 2.2007685975 -0.18984739346 0.72234563048 
