# vtk DataFile Version 5.1
vtk output
ASCII
DATASET POLYDATA
POINTS 356 float
0.378352 0.384477 0.106712 0.568381 0.608314 8.59518 0.676071 8.34741 0.282698 
0.730337 8.25614 8.52784 8.54276 0.772369 0.217728 8.54534 0.87339 8.66965 
8.5645 8.26323 0.290499 8.49574 8.14951 8.60002 -0.244857 -0.0600212 1.19049 
-0.647284 -0.320737 2.45705 -0.820493 -0.405618 4.12198 -0.918324 -0.45549 5.64401 
-0.462921 -0.10424 6.88356 0.0137746 0.321381 7.91508 -0.262107 1.18601 -0.0826747 
-0.103813 2.46657 -0.551508 -0.294154 4.0284 -0.516657 -0.467661 5.73609 -0.497587 
-0.389704 7.03578 -0.253338 0.419503 7.81522 -0.152473 0.390318 8.47323 1.32282 
-0.130705 8.75764 2.68749 -0.0528288 8.65172 4.16721 -0.0431559 8.68815 5.52624 
-0.102167 8.69944 6.81957 0.511237 8.39799 7.792 0.0439564 1.33366 8.73265 
0.110007 2.48824 9.13995 -0.241766 4.04717 9.02358 -0.292391 5.71941 9.08764 
-0.180333 7.02369 8.97161 0.604057 7.73639 8.84155 9.08948 0.15097 0.960139 
9.2375 -0.223321 2.37239 9.40256 -0.484404 4.0195 9.46459 -0.457082 5.60496 
9.2736 -0.113125 7.09904 8.96226 0.251661 8.18405 9.0609 1.30676 0.0908308 
8.60884 2.45907 -0.308974 8.99764 4.05071 -0.44669 8.82554 5.59539 -0.178133 
8.83058 6.88889 0.0597936 8.73905 7.8095 -0.0367427 8.7551 8.62228 1.18309 
8.92842 8.78241 2.47654 8.83674 8.87382 4.03013 8.8601 8.64441 5.49609 
8.80112 8.78616 6.94985 8.73594 8.51762 7.99323 8.90258 1.34627 8.75748 
8.71728 2.38492 9.06293 9.13721 4.02451 9.0759 8.88915 5.54429 8.8863 
8.90808 6.82607 8.69269 8.61888 7.75607 8.93981 1.29215 0.197586 -0.529668 
2.62883 -0.185667 -0.368309 4.29335 -0.25907 -0.684966 5.80689 -0.197033 -0.672101 
7.04409 0.0572237 -0.51233 8.0707 0.325937 -0.207653 1.48586 0.671614 8.85911 
2.65353 0.0976909 8.83437 4.35854 -0.0424501 9.12263 5.81066 0.0736528 9.09277 
6.9685 0.387597 8.78272 7.87774 0.6231 8.96552 1.4199 8.38442 -0.24022 
2.45583 8.89968 -0.251971 4.36235 9.12099 -0.550169 5.79626 8.94006 -0.619062 
7.07272 8.64565 -0.457629 8.13928 8.72379 -0.219964 1.50684 8.30051 8.88539 
2.59641 8.79842 8.98888 4.36406 8.88736 9.1162 5.78663 8.73247 9.20247 
7.07564 8.5993 9.16279 7.99606 8.36624 8.89986 -1.26117 0.144862 4.88464 
-1.65561 6.00852 1.65931 -1.57261 5.97596 7.53749 -0.95102 0.361487 7.70227 
-0.847954 0.57921 1.77249 -0.822628 3.11063 8.53221 -0.0363992 7.72495 8.3424 
-0.878087 7.88717 6.28642 -1.07421 3.16216 0.356561 -1.01921 7.90304 3.35979 
-0.157757 7.75726 0.578598 -1.92077 5.80411 4.86872 -2.12834 2.88398 3.18004 
-2.18045 2.88395 6.4217 -0.184788 0.754072 8.69229 -1.11176 0.231305 6.36818 
-1.12324 0.249457 3.34746 -0.226176 0.642618 0.447243 -1.23758 4.73312 8.25408 
-0.800723 6.01003 8.31946 -0.846173 6.92358 7.88058 -1.2386 6.93363 6.83475 
-0.540006 7.79625 7.3585 -1.42725 4.75855 0.526219 -0.936001 6.02451 0.586056 
-1.32501 7.02232 2.57316 -1.07996 6.99499 1.15642 -0.664294 7.86356 1.85041 
-0.97831 7.93693 4.90088 -1.77099 7.13733 4.11321 -2.19247 5.96323 3.20551 
-1.74566 7.10658 5.58941 -2.06241 5.93057 6.34415 -1.8845 4.5301 2.53884 
-1.67233 3.1474 1.64821 -0.988522 1.26805 0.855242 -1.54531 0.96279 2.50864 
-1.88761 0.693136 4.10429 -1.76612 4.5288 6.88793 -1.5305 3.05548 7.52987 
-1.79203 0.801429 5.61508 -1.26938 0.984915 6.94497 -0.653037 1.32614 8.02257 
-2.00172 2.80798 4.83731 -2.39503 4.45371 5.60476 -2.30312 4.42943 4.12187 
9.33471 0.530531 4.83725 9.60041 5.77844 1.76484 9.67539 5.79746 7.37099 
9.17969 0.826394 7.56723 9.07968 0.818171 1.72417 9.13239 3.17567 8.39622 
8.8588 7.64156 8.24258 9.35888 7.91247 6.19521 9.26498 3.19387 0.441029 
9.3297 7.93834 3.38104 8.90987 7.64951 0.731583 10.127 5.67909 4.80362 
9.87448 3.01924 3.21652 9.88358 3.0045 6.3537 8.78198 1.08755 8.26512 
9.34096 0.494365 6.21743 9.5562 0.472361 3.24099 8.98207 0.963498 0.630482 
9.44901 4.73943 8.10373 9.46115 6.0114 8.30416 9.29135 6.85049 7.83879 
9.76922 6.96436 6.83945 9.07219 7.74779 7.40307 9.46104 4.73254 0.81127 
9.42704 6.05602 0.64219 9.66526 7.01629 2.54609 9.27225 6.89001 1.27709 
9.06624 7.74419 1.92012 9.58677 7.96688 4.79437 9.74308 6.82082 4.10842 
9.79925 5.75027 3.30141 9.71774 6.86897 5.5543 9.95872 5.73659 6.29018 
10.0497 4.3897 2.47009 9.67196 3.00979 1.70713 9.4266 1.52878 0.966965 
9.80099 1.17983 2.46909 9.80013 1.17255 3.99617 10.0631 4.44069 6.88899 
9.77591 3.1011 7.45249 9.77707 1.16303 5.59356 9.63416 1.15355 6.87164 
9.34723 1.52302 8.08004 9.92683 2.55393 4.79417 9.9926 4.33175 5.47793 
10.0062 4.3019 4.10404 3.89779 -1.5838 1.56855 3.86636 -1.54821 7.62087 
8.55798 -0.946649 4.8602 8.3933 -0.185115 7.54524 8.49275 -0.42881 1.58913 
6.56601 -0.653925 8.54757 1.37252 -0.207742 8.56377 1.20341 -1.20448 6.27691 
6.53183 -0.705068 0.374314 1.08067 -1.40881 3.30984 1.3614 -0.313865 0.572623 
3.95653 -2.13072 4.91557 6.65316 -1.79226 3.22179 6.74257 -1.76618 6.44168 
8.15787 0.523219 8.31622 8.51518 -0.629947 6.31367 8.55243 -0.773254 3.20452 
8.36762 0.167523 0.355249 5.17107 -0.990744 8.13172 3.75212 -0.796652 8.5439 
2.6265 -0.946186 7.99177 2.48518 -1.57846 6.93624 1.2517 -0.85933 7.5042 
5.26833 -1.31325 0.558072 3.80111 -0.920416 0.443267 2.61173 -1.70364 2.44151 
2.54024 -1.22869 1.02287 1.17876 -0.95091 1.72371 1.06426 -1.47961 4.90904 
2.59727 -1.87135 4.05701 4.01447 -1.97935 3.22665 2.55023 -1.90006 5.64646 
3.92639 -1.96897 6.41241 5.29987 -1.88984 2.41959 6.58038 -1.40845 1.55103 
7.90753 -0.58364 0.706792 8.0921 -1.29781 2.28275 8.18026 -1.516 3.98682 
5.35892 -1.85667 7.0415 6.60965 -1.20519 7.6049 8.2852 -1.45314 5.71309 
8.14244 -1.03319 7.20766 7.89719 -0.321972 8.33273 6.68569 -1.95641 4.94436 
5.38082 -2.09484 5.75188 5.41719 -2.1797 4.06046 3.82139 9.88737 1.86029 
3.81382 9.705 7.37804 8.62281 9.47591 4.96193 8.25743 8.8652 7.57714 
8.0671 8.69236 1.87385 6.62383 9.18713 8.56978 1.28983 8.95084 8.31667 
1.02703 9.27201 6.25738 6.66486 9.3517 0.271847 1.05086 9.45323 3.28893 
1.23125 9.08719 0.597764 3.86076 10.3637 4.81176 6.73281 9.75247 3.29775 
6.71407 9.85851 6.33252 8.17877 8.4756 8.35452 8.41134 9.07459 6.09574 
8.37019 9.08813 3.24811 8.1797 8.50314 0.649822 5.16496 9.4773 8.28199 
3.65249 9.54717 8.4955 2.54688 9.26592 7.98195 2.32906 9.77309 6.8506 
1.15684 9.1229 7.3477 5.11609 9.63314 0.848162 3.65198 9.62279 0.410517 
2.30541 9.95464 2.58704 2.51228 9.41256 1.15942 1.17436 9.26804 1.9358 
0.81926 9.51985 4.82566 2.32259 9.82942 4.18426 3.84285 10.057 3.2535 
2.3279 9.86825 5.4546 3.81207 10.0363 6.32409 5.41774 10.1542 2.45599 
6.58711 9.60405 1.71524 7.75282 9.10608 0.98015 7.95677 9.63789 2.51759 
7.9505 9.58087 4.06377 5.33703 10.0771 6.97342 6.60509 9.5149 7.48587 
7.86164 9.56554 5.56995 7.9716 9.39743 6.9589 7.77972 9.06237 8.1836 
6.80716 10.049 4.8253 5.3699 10.1467 5.5084 5.36545 10.1163 4.08836 
1.68668 3.78197 -1.79459 7.53557 3.74403 -1.59562 5.04175 8.61726 -1.13892 
7.57853 8.17048 -0.624952 1.77248 8.41752 -0.956863 8.61259 6.42896 -1.05738 
8.29353 1.43323 -0.489586 6.33826 0.994832 -1.44152 0.627661 6.43446 -0.850038 
3.43023 0.994679 -1.55143 0.787782 1.36235 -0.64922 4.95051 3.8592 -2.13927 
3.26962 6.67506 -2.1655 6.45749 6.6834 -1.92437 8.22185 7.95498 -0.0293484 
6.43267 8.39493 -0.920476 3.39783 8.80121 -1.25352 0.786783 8.23262 -0.379036 
8.26955 5.06165 -1.29194 8.26891 3.64378 -0.964065 7.99654 2.42225 -1.29484 
6.89589 2.4167 -1.65454 7.39218 1.21324 -0.91766 0.675199 5.16948 -1.47317 
0.524247 3.71278 -1.2206 2.59669 2.33156 -1.80193 1.0893 2.54655 -1.50148 
1.86841 1.26337 -1.13407 5.03579 1.0673 -1.33546 4.156 2.34347 -2.07408 
3.26248 3.85215 -2.37184 5.68755 2.32616 -1.97611 6.45162 3.73265 -2.21404 
2.49596 5.1854 -2.00004 1.66169 6.499 -1.8028 0.990833 7.66007 -0.95879 
2.64861 7.80606 -1.24409 4.24345 8.07321 -1.65269 6.90723 5.32021 -1.96637 
7.4738 6.54241 -1.35036 5.81909 8.12891 -1.51409 7.10928 7.98985 -1.42838 
8.23896 7.73399 -0.748489 5.04112 6.72811 -2.0743 5.65304 5.3352 -2.30989 
4.07114 5.35613 -2.34593 1.8644 3.80963 10.0119 7.46657 3.68215 9.86442 
5.00573 8.59549 9.92597 7.39743 8.1554 9.35352 1.83806 8.32252 9.67675 
8.49461 6.38633 9.47342 8.14393 1.65378 8.88506 6.3558 1.20732 9.61444 
0.714849 6.4067 9.29083 3.46057 1.15349 9.72807 0.844369 1.44879 9.13262 
4.90512 3.99661 9.87561 3.21981 6.50003 10.0474 6.34526 6.5795 10.2456 
8.34786 7.99327 9.00004 6.56013 8.30819 9.73685 3.48694 8.44931 9.65546 
0.856825 8.2061 9.22226 8.24547 5.07189 9.73495 8.25697 3.60912 9.3059 
7.83093 2.56216 9.49662 6.79429 2.58739 9.65363 7.35162 1.36613 9.40684 
0.792344 5.09862 9.80041 0.638406 3.65701 9.4477 2.71482 2.48716 9.70029 
1.31852 2.55468 9.67994 1.96125 1.36212 9.57656 4.94166 1.11839 9.43088 
4.21241 2.45619 10.0495 3.31771 3.87599 10.24 5.59135 2.46973 10.0786 
6.36582 3.85867 10.1265 2.52244 5.15866 9.81332 1.81498 6.42121 9.83045 
1.23474 7.50932 9.4324 2.75702 7.71234 9.66574 4.22589 7.77914 9.82807 
6.91098 5.32222 9.79318 7.4473 6.44507 9.73943 5.67934 7.80472 9.78489 
6.9682 7.60981 9.76495 8.07995 7.58507 9.30686 4.99662 6.78528 9.87111 
5.60015 5.28446 10.2242 4.02214 5.31291 10.2224 
POLYGONS 709 2124
OFFSETS vtktypeint64
0 3 6 9 12 15 18 21 24 
27 30 33 36 39 42 45 48 51 
54 57 60 63 66 69 72 75 78 
81 84 87 90 93 96 99 102 105 
108 111 114 117 120 123 126 129 132 
135 138 141 144 147 150 153 156 159 
162 165 168 171 174 177 180 183 186 
189 192 195 198 201 204 207 210 213 
216 219 222 225 228 231 234 237 240 
243 246 249 252 255 258 261 264 267 
270 273 276 279 282 285 288 291 294 
297 300 303 306 309 312 315 318 321 
324 327 330 333 336 339 342 345 348 
351 354 357 360 363 366 369 372 375 
378 381 384 387 390 393 396 399 402 
405 408 411 414 417 420 423 426 429 
432 435 438 441 444 447 450 453 456 
459 462 465 468 471 474 477 480 483 
486 489 492 495 498 501 504 507 510 
513 516 519 522 525 528 531 534 537 
540 543 546 549 552 555 558 561 564 
567 570 573 576 579 582 585 588 591 
594 597 600 603 606 609 612 615 618 
621 624 627 630 633 636 639 642 645 
648 651 654 657 660 663 666 669 672 
675 678 681 684 687 690 693 696 699 
702 705 708 711 714 717 720 723 726 
[...]
CELL_DATA 708
SCALARS scalars double
LOOKUP_TABLE default
-2.4604208149 -8.8010590744 -5.3081900761 -6.2680377683 -5.7012727743 -5.6120068447 -8.933555103 -6.6754346276 -5.2511471016 
-5.0214445502 -4.5142906118 -5.1528016932 -5.8844572358 -2.0246101146 2.0486146091 2.3233588345 -0.69377797612 -0.24897707553 
1.2078981991 -0.48761951531 5.0642957454 5.1377158195 4.835403357 4.7567550851 5.2928322622 5.5291242111 6.0651796056 
7.4129086391 7.4589665273 6.3833666544 2.8610281128 5.2099311468 1.9697560246 -0.70615672868 -2.0177727279 3.2983418905 
-0.8020800132 -0.62897891229 3.4175166326 4.346177337 4.8428440408 6.1149125319 5.2445194475 7.504192983 7.5529912443 
7.4247334185 7.0838554874 6.2993480929 6.1383838835 1.9862462857 1.2239412577 1.3323063929 6.543589928 6.7891822527 
7.5258392186 7.0333240232 5.2384575547 7.9098921234 7.8490286456 5.0907675596 2.0840711416 5.0584369233 5.1147005678 
1.920177384 5.0802895779 4.6382480514 1.2257426404 7.1004705176 7.023070178 6.9034109443 0.20571005443 -1.5385948031 
0.33086738966 -0.064565934947 -1.2240698715 -5.9155372922 -5.2128494028 -2.0483595507 -5.2547636889 -5.6979572425 -6.9333205584 
-7.0008492651 -6.1253764296 -1.7586946462 -1.5030275112 -1.8917505425 -0.39811435726 0.77505768028 -1.0797995045 0.075713747353 
-3.1103386382 -5.3948576141 -5.8355975002 -4.583199965 -2.6596605881 -5.5759021106 1.1669480012 -1.1065131096 2.273342287 
-2.3734121834 -2.4957558792 -2.5365229803 -6.8756752926 -1.4322594589 -0.78728711373 -0.7740378226 1.0287856836 -0.47457369763 
2.7274104518 -0.18635539021 0.44724234413 1.7444334315 -0.49657183833 -0.85833513441 2.9949108652 -1.5311237248 -1.863112681 
-2.0677182248 -2.8357614154 1.2489559142 -2.929044173 0.55492193529 -1.776185595 0.99186998606 -0.49393770497 -2.3351861946 
-2.652711075 -2.6113163724 1.0249194555 -1.7421946223 -1.8010660348 -0.11363982792 -0.46066115244 -1.0966999618 -2.3943357266 
-1.5993690344 1.0154577774 1.9734532104 1.2882455307 3.509853806 5.2839319964 4.0624876162 4.5970956957 3.4894961074 
3.0597524075 2.5551741024 2.0762349905 2.1436836801 2.7738210207 2.7380949682 3.8432655156 -2.466450472 -1.0935265142 
0.06081182926 -0.42130745027 1.7246703335 -0.51958778583 1.4368576169 5.0176535734 3.3651537253 4.3441872493 4.5183019392 
2.2053118918 2.8776201083 2.1142116508 2.3480670814 1.9932286898 2.4626214164 3.9841227586 1.1248848437 4.2557693089 
0.75987646889 6.4887705525 5.5006351155 3.4486757947 5.4508254779 6.8070883384 0.28697586984 2.0089398089 0.81914901309 
3.5944515484 2.6776758302 0.36780696271 1.7518255806 3.2196225583 2.2863275932 2.3707646831 1.2740645564 1.5065727596 
-0.45915512674 -1.946709954 -0.65120187899 2.012761945 -6.9370803285 -2.3308194333 -0.40073880001 -5.2297522996 -3.6965268063 
-2.1466180879 -3.279939907 -6.6995715786 0.14469962693 -0.044602502206 -0.35646032851 1.0443516266 -1.6371103267 -0.60729097903 
-0.014071938066 -1.0250346923 -1.6726804427 -1.5700958584 -4.8093374168 0.074890946403 -0.21366740112 -4.4532971566 -6.1297735037 
-7.3354700985 -0.0038732223722 -1.0359729073 -1.5020409295 -5.7975717714 -0.78329813671 -0.61789789871 -0.99214984715 -1.0878663025 
1.8728317515 -0.41987883244 0.55316616348 -1.1592603962 0.22007995263 2.4999714438 1.6024680021 -0.93410814813 -0.65956617152 
-0.53489536548 -0.41096425798 -8.6036467198 -6.520849156 -7.768318138 -9.010795663 -7.5084117911 -8.7868452131 -8.8937738529 
-7.0192011448 -8.6344934234 -6.394690887 -8.1711455927 -5.999032297 -3.442858665 -3.3851878515 -5.5654797173 -7.6816800625 
-6.6457331808 -3.2632795086 -6.4449499244 -5.0087596801 -6.9137179049 -8.1802514932 -8.1478284898 -8.8124358427 -8.1910449185 
-8.4689612163 -6.9860012146 -5.4213871731 -7.0569180055 -3.0092093727 -7.7233801852 -6.2780258788 -5.9696462177 -2.7965204983 
-8.000591736 -7.9780592226 -8.5277563709 -7.6859822611 -7.4794227848 -8.1428959734 -9.4299305887 -9.0042925184 -7.6914658961 
-8.9997720573 -8.6293222273 -8.0696692388 -8.3264427837 -7.9599297501 -8.5397862319 -8.6887490867 -7.377672948 -8.620644397 
-7.9489090701 -8.2628159917 -8.9229146248 -8.9759890041 -8.2855168802 -9.6443166964 -8.7575077688 -8.7776349607 -9.7172958543 
-9.8719166362 -9.853244513 -9.0538807936 -9.8865204124 -9.3748307122 -9.5721966656 -9.8458432114 -9.0493677677 -9.6153643525 
-9.651199112 -9.5496040297 -8.0828996455 -9.522315568 -9.4299883883 -6.9166213237 -8.059525396 -9.6083633348 -6.1037672916 
-7.3016394856 -7.4879419101 -5.3694129559 -6.1191405521 -9.5691226725 -8.3792787009 -8.65236542 -7.7315255368 -8.6101520435 
-8.6067599931 -7.6789578087 -9.0443371584 -5.8700314574 -4.4107746442 -3.9419035 -2.961062228 -0.27867600839 -4.1005536756 
-8.2977491598 -2.6059068342 -8.2173433474 -8.7036943414 -7.9810800623 -5.1666115094 -9.6204549809 -9.6981849816 -9.5607301806 
-9.7289074193 -9.4321418126 -9.9359028083 -9.8337579351 -9.666731622 -9.9195597949 -9.7117035443 -9.844803338 -9.9873935303 
-9.665838175 -9.7729031353 -9.8910869832 8.512080984 7.4845148704 8.0502998431 7.5146616517 5.5536321715 2.9238409131 
8.7380993391 7.7531651634 8.9135409112 5.3901596302 9.9254917827 6.5049986288 7.6109912313 8.9731772076 7.2201757178 
9.8659693539 7.4862141214 7.4285694986 7.8854248801 6.3102513619 7.9248541374 8.989939878 9.6210921737 8.9058705095 
8.5220003547 9.104586109 7.2426187878 6.5096235677 7.2023309958 5.5777799848 9.5366939016 8.9909776902 8.2493153619 
5.3453463717 7.6190996513 7.5069564139 9.815918613 9.0533856212 9.1654865108 9.1226974097 9.1948420173 8.8208112816 
9.7262790671 8.7209142503 8.3808463031 7.4491019891 6.2062175452 6.4915600486 7.8096279974 8.8416603164 9.3718244141 
9.5249087107 8.8030941825 8.1031851058 6.7937953507 7.8532789258 8.8564948326 9.3995262587 7.5010421044 7.1396753012 
9.9260209525 9.4936363947 9.9183917726 9.2143592583 9.538362632 9.5206190025 9.8621314902 9.4772055127 9.3151375616 
9.6952962216 9.7652614641 9.528011525 9.7938669066 9.2544404524 9.1594000544 9.5263454575 8.8560479537 9.9249388679 
5.3881372733 7.3413788708 7.3989669657 6.2277419321 2.5533185743 9.9485159502 9.3975074417 9.2244227741 9.0864927565 
9.1139140621 9.4936764186 8.7681091138 9.487725398 7.3560867582 7.4139743982 7.6465221552 7.7907794167 5.1347117579 
6.9362912557 7.7420700977 5.9408286034 9.3970243504 9.3481062831 9.3870101947 9.9122931029 9.3366426094 9.463444427 
9.1709485091 9.8244594265 9.4288326334 9.7621443018 9.9784728216 9.6130136928 9.7876033447 9.8564151777 9.9848136548 
9.8813175569 9.6993905006 9.8271301384 9.9810783688 4.7743029947 -0.92272935092 8.2746987384 6.7123729184 7.3525635289 
7.9729633653 4.7363905305 6.8370250142 9.6094005641 6.7494212516 8.8061949183 7.0873565812 5.6915813458 9.621124895 
0.20802857412 -1.75500668 -1.7468914331 0.33858624259 -1.6416883506 -2.2062002464 1.820814051 -1.0713776038 -4.6828179516 
-3.0936728643 -4.1236421502 -4.1490657627 -4.0280692017 -2.9734396388 -3.0534712729 -0.429718544 0.57523279774 -1.6749595055 
-0.47010674461 -5.799691666 1.9216537039 0.63464214506 -1.0991009846 3.7031090889 -0.59245723245 -0.60361148915 -1.2770400151 
-3.518942233 -4.6731921641 -3.9604598535 -6.3714495776 -2.6879781943 -4.7411930903 -3.2906984995 -4.7998354733 -5.6454460125 
-3.8609050658 0.013950413947 -1.0965407963 -0.6442801575 -2.6494004062 -5.085628662 -5.968010753 -2.7897620536 -4.9720759131 
-4.5191632858 -2.0172502881 -1.1365198049 -2.829709732 -2.4417802689 -1.3439856866 -1.9713073803 -2.9963035716 -0.75719968121 
-4.1121819011 -4.2218378568 -4.7377132132 0.19759515086 3.1446006377 0.062874748837 -0.32108294448 6.4669944463 6.8649058116 
5.0224899001 3.3125636078 4.6275304124 7.2672765372 1.9753375211 1.9109452072 5.298102465 1.3600875373 5.0338440445 
-0.36800407613 1.9182010912 1.0033002878 2.1648945336 3.1091332536 7.0912923382 7.1687875514 8.5040428279 3.2870935122 
1.0469129976 7.8701160839 6.1757658399 9.2563323301 2.9339059122 0.79014155781 0.87479206953 6.5136695493 3.1594984208 
3.1992960914 3.3629276805 1.1649501217 -0.067320171562 -0.87858575849 0.74174311748 0.030752650685 -0.56353679585 0.62310474495 
1.3850360604 -1.2464061411 1.6270201149 2.1234092618 1.7727859398 4.5281406584 6.6840280669 3.7272110956 8.4649560474 
3.7796606434 9.572554956 5.7468833114 4.9889056667 8.3418843574 5.3102971784 8.9341242277 4.4320891564 3.3969266261 
9.9120571942 -0.40254587506 -2.3165382264 -2.6030316913 0.61831593246 -0.3498500709 -0.81229909401 2.0049607365 -2.6824521124 
-2.9555786106 -0.96808843568 -1.3183656353 -5.888275835 -5.2798281677 -0.36609559968 -0.83076136246 -2.734300528 -0.83022583505 
-4.5183810781 -0.14091134298 -2.3232234494 1.0812743328 0.28417445993 -1.7874378304 3.1428060222 -0.4866798838 -1.5867295149 
-2.4509947267 -0.3844104117 -2.779487493 -0.96600271807 -5.499307627 -5.5176257417 -4.1692123628 -4.7587380857 -5.9448604292 
-5.6346677624 -2.744614192 -0.6189968532 -0.57381393184 -0.3387590007 -2.8539585131 -3.7772595991 -5.2525232283 -1.0727502409 
-3.3498030371 -2.7598560086 -3.0800063574 0.097481677768 -2.6698392158 -1.3498866973 0.5729343691 -2.9003307052 -2.2332646388 
1.2195852362 -3.9318200011 -3.3139804402 -4.2634182161 1.5168284939 3.0719778337 -0.9554880106 -0.17406061397 5.9349449956 
4.9954278041 2.5704677514 -1.7604747256 4.3249114438 4.8698255051 1.2732089294 -2.0143024496 2.3981420775 0.92496210174 
2.5219888965 0.61951928611 -1.4677594083 1.428779904 0.24774939531 3.8535726611 5.3467738278 4.9665332234 0.53948754841 
3.3690417064 4.681653492 3.6283575874 6.081486579 3.183752082 2.1808574183 1.5653842519 1.362636191 -1.4907430402 
2.3216935898 1.0597354723 0.65287953887 -1.9460885115 1.2602273163 -1.6414394424 1.0069702748 -0.33324641302 -1.0082691174 
2.2020525426 1.4612905003 -2.5836139147 1.8954580564 1.2645386563 2.3015859707 
