# vtk DataFile Version 5.1
vtk output
ASCII
DATASET POLYDATA
POINTS 356 float
0.167954 0.306942 -0.131108 0.46238 0.484383 8.41203 0.55115 8.00553 0.0451273 
0.714396 7.84091 8.2759 8.31162 0.630074 0.00399559 8.19023 0.904313 8.27608 
8.11917 7.82799 0.250001 7.98137 7.59849 8.17823 -0.335395 -0.190249 1.00471 
-0.895219 -0.490688 2.36805 -1.17036 -0.640934 3.8947 -1.09879 -0.596486 5.37574 
-0.70669 -0.230284 6.47888 -0.150191 0.0360055 7.59811 -0.338031 1.01945 -0.169466 
-0.335971 2.33232 -0.981425 -0.678525 3.95634 -0.989032 -0.617675 5.35397 -0.687598 
-0.512876 6.52708 -0.412224 0.000615123 7.63524 -0.566059 0.0554287 8.44812 1.0498 
-0.274558 8.56516 2.38265 -0.479665 8.58251 3.98944 -0.363997 8.54289 5.24599 
-0.163648 8.50291 6.58062 0.352735 8.1966 7.60673 -0.064027 1.14412 8.58209 
-0.0429891 2.31841 8.90782 -0.378832 3.92084 8.94171 -0.164195 5.36403 8.61016 
-0.217684 6.54595 8.64056 0.513639 7.32496 8.64352 8.57978 0.160021 0.900664 
8.83614 -0.134395 2.21021 8.9668 -0.326561 3.80837 8.95949 -0.31534 5.32231 
8.93158 -0.0599624 6.7583 8.63596 0.45055 7.84375 8.41535 1.32951 0.0830916 
8.53404 2.33489 -0.644859 8.50746 3.84833 -0.519638 8.74378 5.33317 -0.469843 
8.64551 6.53181 -0.00583731 8.39755 7.4575 -0.205958 8.21675 8.14027 1.10461 
8.34396 8.37401 2.48051 8.34275 8.44339 3.86475 8.42866 8.41371 5.36697 
8.2568 8.29884 6.58357 8.11832 8.03217 7.56526 8.45992 1.50026 8.38009 
8.44339 2.51884 8.82096 8.65794 3.92897 8.65071 8.51207 5.29412 8.63705 
8.61469 6.48385 8.44542 8.13243 7.28531 8.4033 1.15011 0.0868023 -0.764268 
2.54891 -0.465383 -0.705181 4.07451 -0.446467 -1.0071 5.5531 -0.307159 -0.981633 
6.68348 -0.086406 -0.935315 7.64794 0.305428 -0.257653 1.34265 0.202933 8.86783 
2.62567 -0.0405576 8.82406 4.14143 -0.006842 8.9106 5.60204 -0.0979186 9.013 
6.71731 0.263236 8.73 7.59326 0.615306 8.58775 1.18255 8.32683 -0.62609 
2.50559 8.64659 -0.595767 4.12988 8.73 -0.96563 5.52182 8.59639 -0.931035 
6.62959 8.30267 -0.550181 7.50148 8.06137 -0.153827 1.38601 7.94573 8.71672 
2.48574 8.26007 8.62274 4.18488 8.36059 8.83248 5.54141 8.30871 8.95791 
6.64147 8.12917 8.8622 7.60597 8.01965 8.70387 -1.81705 -0.201823 4.61562 
-2.04068 5.75177 1.52019 -1.66915 5.67806 7.18933 -1.14837 0.276332 7.43113 
-1.36414 0.163274 1.45651 -1.06707 3.04658 8.12743 -0.160685 7.4452 8.08569 
-1.12401 7.65647 6.01011 -1.32029 3.11382 0.203789 -1.30827 7.68013 3.16325 
-0.400144 7.52534 0.358321 -2.63956 5.54287 4.68433 -2.61605 2.90105 3.12378 
-2.21953 2.94957 5.94945 -0.225231 0.573958 8.2622 -1.62111 0.000587011 6.07783 
-1.73362 -0.102638 3.09367 -0.589747 0.427864 0.319383 -1.41265 4.59491 7.9652 
-1.12402 5.80257 8.14521 -0.92534 6.66111 7.52423 -1.77666 6.74158 6.65016 
-0.835138 7.63999 7.1451 -1.67152 4.52173 0.503886 -1.58889 5.76168 0.171736 
-2.03982 6.71834 2.4246 -1.28149 6.66805 1.01546 -1.07563 7.56744 1.73463 
-1.54357 7.71522 4.63912 -2.28257 6.68816 3.9726 -2.44292 5.61109 3.1755 
-2.12106 6.68291 5.29118 -2.29054 5.62282 6.00571 -2.6235 4.40091 2.35964 
-2.05153 3.03112 1.47687 -1.28724 1.13281 0.68931 -1.76959 0.857937 2.39817 
-1.95032 0.666686 3.90737 -2.25882 4.35244 6.50783 -1.78327 3.01408 7.17649 
-2.01658 0.659713 5.34224 -1.53084 0.918232 6.66538 -0.837558 1.24223 7.84242 
-2.71221 2.88874 4.67319 -2.7199 4.37042 5.30066 -2.67185 4.43872 3.94471 
9.29723 0.37883 4.62246 9.48827 5.55763 1.7327 9.49366 5.58234 7.13054 
8.89412 0.874698 7.10985 9.29168 0.695714 1.42964 8.81158 3.0806 7.97806 
8.5283 7.23766 7.90803 9.08768 7.56023 6.00422 8.9639 2.9683 0.376101 
9.0869 7.61843 3.14312 8.4103 7.21504 0.672669 9.56823 5.46138 4.58236 
9.82154 2.81023 3.06243 9.28708 2.86626 5.88791 8.53942 1.15097 8.0601 
8.96647 0.48234 5.99337 9.38895 0.374369 3.02878 8.94358 0.861363 0.23404 
9.27757 4.4201 7.7808 8.88992 5.64983 7.88279 9.0771 6.56348 7.54345 
9.13801 6.53227 6.46268 8.79107 7.35382 7.04449 9.28676 4.38267 0.622651 
8.83822 5.67126 0.712372 9.18276 6.52118 2.50135 9.12994 6.63167 1.10924 
8.80409 7.49664 1.73585 8.94351 7.60227 4.56425 9.35453 6.55408 3.90597 
9.7158 5.45791 3.13863 9.48364 6.66156 5.35545 9.59496 5.48806 5.93496 
9.57264 4.27893 2.4179 9.45777 2.94376 1.58469 8.94932 1.49155 0.798025 
9.23589 1.26935 2.43383 9.30296 1.06133 3.80538 9.47024 4.22369 6.51016 
9.39306 2.8573 7.11905 9.42719 1.09785 5.24557 9.33127 1.28541 6.55245 
9.03118 1.48884 7.78534 9.57271 2.81472 4.55711 9.86424 4.11918 5.22957 
9.64255 4.24885 3.779 3.68173 -2.02892 1.39279 3.79406 -1.77755 7.07459 
8.66766 -1.26577 4.67279 8.2124 -0.209515 7.24909 8.38288 -0.806106 1.28523 
6.21445 -0.535203 8.07314 1.32959 -0.358084 8.07312 1.03938 -1.65134 5.99171 
6.29167 -0.952323 0.12403 0.958997 -1.76558 3.1115 1.26483 -0.596099 0.18002 
3.85047 -2.48108 4.73331 6.25066 -2.09257 3.06682 6.37442 -1.86524 6.04787 
7.97095 0.433972 8.22874 8.37456 -0.745498 6.02676 8.55796 -1.1476 2.94488 
8.21186 -0.0616771 0.104438 5.07192 -1.16071 7.94411 3.57075 -1.21045 8.2928 
2.49127 -1.17674 7.56335 2.38173 -1.83082 6.56737 1.06251 -1.15165 7.1555 
5.02801 -1.31479 0.340131 3.70628 -1.40705 0.0701207 2.4067 -1.93692 2.37694 
2.45895 -1.43914 0.853806 1.12564 -1.20939 1.5468 1.01841 -1.59574 4.60757 
2.36604 -2.28068 3.96663 3.78723 -2.47735 3.17031 2.39947 -2.30061 5.28561 
3.82889 -2.27848 5.98909 5.05 -2.17301 2.39885 6.30248 -1.67082 1.28034 
7.6063 -0.722627 0.43366 7.6365 -1.12492 2.20271 7.78119 -1.44315 3.79664 
5.13406 -2.08427 6.46914 6.36458 -1.43846 7.30812 7.83234 -1.45051 5.42639 
7.89129 -1.04958 6.84076 7.78557 -0.312984 8.03837 6.28829 -2.22801 4.67425 
5.05415 -2.38291 5.3108 5.04014 -2.43285 4.01298 3.62486 9.59753 1.6948 
3.59374 9.43239 7.18404 8.20331 9.04773 4.66449 7.95449 8.66918 7.2491 
7.97842 8.79128 1.54987 6.21311 8.74871 8.31196 1.27129 8.60108 8.0814 
0.927551 9.18764 6.05301 6.22438 9.18192 0.240428 0.843391 9.28982 3.118 
1.19691 8.74283 0.408509 3.66132 10.1299 4.64828 6.33909 9.55021 3.16428 
6.36498 9.47027 6.00985 8.06413 8.31404 8.19746 8.05352 9.0314 6.09151 
8.00843 9.06425 3.10506 8.04592 8.55399 0.382998 4.86033 8.95897 7.89168 
3.5391 9.03194 8.23347 2.4071 8.94286 7.72136 2.25015 9.60858 6.63918 
1.13533 8.86586 7.05579 4.93232 9.27459 0.637653 3.48909 9.47667 0.279271 
2.19443 9.83326 2.41638 2.27827 9.30349 0.995562 1.11022 9.00179 1.79829 
0.728849 9.44078 4.6136 2.21158 9.69086 4.01527 3.6105 9.85689 3.12239 
2.2097 9.68231 5.27315 3.63549 9.72134 6.13136 5.07859 9.83657 2.32011 
6.20807 9.27774 1.58917 7.17659 8.58514 0.886197 7.34941 9.13264 2.39257 
7.43353 9.14123 3.95714 5.15817 9.67517 6.76286 6.2965 9.1933 7.26923 
7.43822 9.13046 5.2745 7.4002 8.95185 6.60608 7.25597 8.44893 7.73952 
6.38626 9.82761 4.6396 5.03095 9.73887 5.32859 5.0213 9.84506 3.90226 
1.61209 3.56713 -2.24191 7.13517 3.57914 -1.99465 4.85211 8.30226 -1.48871 
7.33048 7.98265 -0.987901 1.81923 7.91061 -1.04902 8.03233 6.09865 -0.990043 
8.09948 1.31527 -0.839124 5.99489 0.926169 -1.69406 0.324559 6.12263 -1.54581 
3.33929 0.956995 -1.97864 0.534467 1.08088 -1.13605 4.64174 3.58908 -2.91479 
3.19807 6.14571 -2.28859 6.08031 6.32609 -2.12068 7.89005 7.70547 -0.228964 
6.33961 8.17093 -1.51412 3.18711 8.11814 -1.37076 0.696607 7.75097 -0.535825 
7.84676 4.88016 -1.34844 8.04224 3.47206 -1.41788 7.4728 2.36665 -1.40892 
6.54497 2.2203 -2.29974 7.13012 1.10142 -1.33455 0.59926 4.81228 -1.82583 
0.238341 3.47618 -1.77738 2.53001 2.14614 -2.42266 1.1081 2.2715 -1.94196 
1.88439 1.06347 -1.51516 4.68903 0.804754 -1.9651 4.0544 2.22572 -2.41919 
3.19554 3.53874 -2.67077 5.38445 2.23158 -2.45949 6.035 3.63335 -2.61456 
2.49228 4.85007 -2.71522 1.58963 6.03869 -2.04955 0.865944 7.33828 -1.24556 
2.52299 7.55465 -1.82028 4.16371 7.70201 -1.78997 6.56717 4.97513 -2.30747 
7.22979 6.22672 -1.72176 5.41909 7.6752 -1.77201 6.6015 7.37847 -1.33638 
7.74494 7.28719 -0.713965 4.76649 6.27303 -2.54231 5.40639 4.96578 -2.56224 
3.962 4.9313 -2.78358 1.79471 3.55651 9.70412 7.15501 3.63313 9.69234 
4.6994 7.87297 9.24948 7.15158 7.61259 8.79127 1.91064 7.71645 9.04405 
7.92131 5.96388 8.8997 7.77746 1.6726 8.65602 5.98815 1.21878 9.29677 
0.664367 6.04493 9.25287 3.33283 1.05494 9.54471 0.820567 1.22993 9.04649 
4.66802 3.70336 10.088 3.23748 6.17987 10.0132 6.02218 6.08574 9.67997 
7.88228 7.53436 8.41434 6.05814 7.65052 8.94683 3.32574 7.98621 9.40856 
0.981014 7.56129 8.57628 7.7946 4.77188 9.39618 7.88146 3.48189 9.07386 
7.53032 2.48519 9.31558 6.51646 2.45509 9.56111 7.24304 1.26317 9.31755 
0.667617 4.85738 9.49148 0.698109 3.41076 9.30604 2.65498 2.29749 9.69297 
1.25682 2.3806 9.65717 1.89525 1.19666 9.28954 4.7874 1.0437 9.50492 
3.9489 2.32644 9.86367 3.12788 3.67561 10.1743 5.34866 2.32403 9.99751 
5.93196 3.67565 9.89426 2.55383 4.96326 9.84003 1.93081 6.10617 9.4262 
1.22294 7.2129 9.13094 2.553 7.23344 9.42937 4.08586 7.27548 9.57611 
6.57065 4.931 9.65861 7.23291 6.1474 9.43792 5.54457 7.42431 9.67099 
6.66998 7.29558 9.43246 7.83087 7.14981 9.0462 4.73454 6.24743 9.87961 
5.38378 5.01832 10.1118 4.00298 4.90249 9.95306 
POLYGONS 709 2124
OFFSETS vtktypeint64
0 3 6 9 12 15 18 21 24 
27 30 33 36 39 42 45 48 51 
54 57 60 63 66 69 72 75 78 
81 84 87 90 93 96 99 102 105 
108 111 114 117 120 123 126 129 132 
135 138 141 144 147 150 153 156 159 
162 165 168 171 174 177 180 183 186 
189 192 195 198 201 204 207 210 213 
216 219 222 225 228 231 234 237 240 
243 246 249 252 255 258 261 264 267 
270 273 276 279 282 285 288 291 294 
297 300 303 306 309 312 315 318 321 
324 327 330 333 336 339 342 345 348 
351 354 357 360 363 366 369 372 375 
378 381 384 387 390 393 396 399 402 
405 408 411 414 417 420 423 426 429 
432 435 438 441 444 447 450 453 456 
459 462 465 468 471 474 477 480 483 
486 489 492 495 498 501 504 507 510 
513 516 519 522 525 528 531 534 537 
540 543 546 549 552 555 558 561 564 
567 570 573 576 579 582 585 588 591 
594 597 600 603 606 609 612 615 618 
621 624 627 630 633 636 639 642 645 
648 651 654 657 660 663 666 669 672 
675 678 681 684 687 690 693 696 699 
[...]
CELL_DATA 708
SCALARS scalars double
LOOKUP_TABLE default
-3.1755979888 -7.6873463436 -4.4919340181 -8.2423126367 -5.27251424 -8.5163213385 -8.959300105 -4.9784665017 -8.2534797831 
-5.4419843799 -8.2110603822 -6.0394292983 -7.4503852813 -1.8153829318 1.3632449291 -0.26853876664 -1.5504482548 -0.86324076567 
-0.43356498266 2.6362514254 2.7811581586 2.9953878922 6.5635009517 3.227130415 6.2906843871 6.7750129383 7.1259620926 
6.7621894509 6.8259623633 4.7513738593 4.6669049478 3.7192823896 5.1931207799 -1.7364953148 -1.530897554 -0.21949824682 
-0.9904518928 1.6136131959 -1.4433781038 4.1486641836 6.7598951338 4.9344070238 5.0907523338 7.1933512057 6.1648160089 
6.6229388125 6.9566342978 6.8165612288 4.4122389239 5.2324181165 6.1652105877 2.3433101889 8.7416489232 3.5734216963 
7.3896723719 7.0599354271 6.5189785448 7.3050380891 7.9604589127 2.0203445534 2.2941393476 2.5000435473 6.4544763189 
3.0077211028 1.4176354716 2.9826981388 3.5996180581 5.9101297796 6.353595436 5.3513013849 1.0421950919 -1.0764497262 
-1.7353338997 -0.73893710966 -4.0347982921 -4.0574680845 -5.1794087719 -3.3121119809 -2.9066863183 -4.3825073339 -4.62006078 
-1.3419620514 -1.5577320245 -2.5824310297 -1.3682174624 -2.4665779999 1.3862127133 -1.6055847463 -1.1382506879 -0.51793989551 
-1.7883914024 -5.8886696053 -5.7355641618 -1.436667249 -1.9802268797 -5.1695230259 0.69783127196 -4.2074228275 -1.9541489107 
-1.931867242 -1.9330426658 -2.2924272401 -1.8822715079 -1.7705539212 -3.0472751295 -3.0998258309 -1.650473456 1.5725495814 
1.9129135185 1.175105754 -0.20245894122 1.1153876808 2.778965571 1.6994408332 0.51156293429 -0.031334197036 -1.581350334 
0.096048538165 -3.4664965919 -1.5996471224 -3.0474818155 -0.29494588425 -3.0295879935 -4.3132468475 -0.72213269451 -2.2389355601 
-6.1885368893 -2.9965923166 -6.5266849281 -2.3979467644 -7.2622910787 -2.780172212 1.9379556819 2.1796582235 -1.010422101 
-2.2504873026 -0.053952245083 0.90147254289 3.7568254382 4.9181624368 1.8081755095 3.633176931 6.2854147712 5.8102731193 
5.6914207807 5.5809721268 5.3830175266 4.5815646044 0.70456337273 4.0840043786 -0.13311848561 0.50205872434 -1.0371848663 
3.1752436323 -1.0038061512 -1.1698858593 3.344902022 3.104889804 2.0626970838 5.6788194816 3.5702603419 6.8552542606 
3.6509986475 2.9473796537 5.6745450823 5.8692681729 6.0420829258 -0.32557065249 -1.1798285696 1.2512303737 4.9413670142 
2.7049076097 5.7930370182 6.7708800889 1.5782763927 6.2513777276 5.6070180887 3.8617713835 2.4903304313 3.8602613136 
1.8497343131 0.83965778382 3.798324907 2.4249517511 1.3243956033 4.4755484729 3.0879053557 4.226751296 -0.19715215614 
-1.4320657572 0.62089037384 0.12717492899 -4.3369846259 0.59044614764 -2.4401984314 -3.197338087 5.1722538783 -1.6959776954 
-2.3163777294 1.5220502853 3.0786409727 -2.5195079601 -1.1698330579 -2.2671079547 -0.91401003201 -0.94372369004 -1.8878710074 
0.10257987347 0.55259265393 -2.8120786868 -1.6598565876 -4.8521416927 0.70535412896 -1.7063536008 -4.9349344272 -4.1148520584 
-4.2968388418 0.48160264966 -0.082273838659 -1.2945392458 -1.0737442687 0.012583204724 -2.1711736356 -1.1693236495 -2.6261239568 
-0.57690075523 2.0454532241 0.38091130483 1.4659858357 -0.064053664091 -0.2127652498 -0.88357074165 1.5027203304 0.40961766197 
-3.1544433556 -1.3522340416 -6.8284923159 -3.0748262204 -7.1143824626 -7.0992601787 -5.6390426257 -2.9776903921 -7.3700913718 
-6.8440472833 -3.4110197959 -7.4901094461 -2.865293546 -7.0372579154 -1.9082586002 -1.8496717476 -4.3516545678 -8.893195487 
-5.2323516805 -7.1855728024 -7.4561447149 -4.4065602506 -6.8248862259 -8.1537070613 -7.1007765286 -8.7955570788 -8.145444291 
-7.7318733634 -7.1664980116 -6.5613558498 -6.401303311 -8.0855219004 -8.9014488383 -7.1479030496 -6.4200836167 -7.0849104378 
-7.9314501723 -7.9214887218 -8.9605089571 -8.132218832 -8.0852079606 -7.6392909213 -9.0334047072 -8.940291139 -8.3749262113 
-8.9942645529 -8.4265235857 -8.1306580928 -7.3994303282 -7.2662015503 -8.2228122737 -8.3267834608 -8.0780559419 -8.7696153223 
-7.9991579429 -7.1850620828 -7.9188794929 -8.9976136121 -7.5593007355 -9.5227457653 -8.9535815394 -9.098328029 -9.443412494 
-9.9079070717 -9.4530943198 -9.0720360424 -9.8547474501 -9.0342083518 -9.2867380808 -9.917281926 -8.9606284184 -9.068477981 
-8.9108545038 -9.0657767168 -8.3897408729 -9.5730508318 -9.2259442385 -4.5141387617 -3.899046884 -8.5848997884 -5.5513006063 
-5.9498156279 -6.3555018709 -9.6811608503 -9.650494719 -8.5647096682 -8.1830129535 -8.4976925036 -8.4575558581 -9.1221925903 
-6.0277492309 -8.433009126 -9.0174124652 -6.8681068394 -5.2565053278 -6.8565330772 -6.7223113995 -3.2659849912 -4.8238998473 
-3.3676233387 -3.3244536349 -6.3227285519 -8.9598957544 -7.8166846092 -9.783762919 -9.1019408542 -9.0177221822 -8.8938779571 
-9.4313532058 -9.0805344654 -9.872148859 -9.6783037875 -9.7592324277 -9.9926484047 -9.6528827146 -9.7769838158 -9.9728542281 
-9.7467711758 -9.4244090067 -9.8905262944 4.879171607 -1.1742721748 5.795720413 3.6446879754 7.2318157666 2.8576775699 
3.4488386278 7.3059078524 4.530667185 7.9430315952 4.3163732557 8.602339992 2.0275795464 1.2781711968 9.2200132365 
9.2204875413 7.5347783784 7.1887375242 8.4287569749 5.8532038236 8.4895607973 8.4006709273 9.4238449951 8.3375687956 
7.8393079301 8.5993096542 8.1204168552 5.657383125 8.1789924014 6.7795322045 9.1427883106 7.9426638052 7.400918426 
5.4728751191 7.0854246991 6.4622883029 9.81751482 9.0727260399 9.2635703956 8.8230708551 9.3631420001 8.3220994845 
9.0996899205 8.3010425461 8.5836011617 9.1846614216 7.0659079139 6.88946043 9.1703236818 8.7927733781 8.8430713947 
9.8145830426 8.4429588066 8.0360586362 9.0790304122 8.1214835998 8.6385412893 9.3908073913 8.3828526334 7.9252549435 
9.8145611018 9.6165817075 9.941408591 9.4307803322 9.4890358641 9.6397137376 9.9660471039 9.5632892061 9.4879159012 
9.7106127377 9.8647618849 9.4882262636 9.9628627322 9.2321932347 9.1402028996 8.6726565189 6.1254943971 9.3042950193 
8.2795774379 6.8752835371 7.2638352004 9.9321637234 9.3720493911 9.500524328 8.298591756 8.6300043779 8.4260414861 
9.2957479575 9.1908834743 8.2707427439 9.1480118555 7.4642563424 7.8618162611 9.9105227072 7.4494195165 8.6728438564 
9.1423223204 -1.057248992 8.9588919707 8.1153507989 9.1707533645 8.0663597448 9.9349879118 8.6948298246 8.7224518957 
8.3490792001 9.8256841244 9.621105233 9.5389042458 9.9898689236 9.7554155385 9.7811084714 9.8024902812 9.9992570642 
9.6788726975 9.7575726753 9.6532423794 9.9685081766 4.3396182539 7.0144019344 2.3513449145 9.207771598 6.1755369363 
8.3002361195 9.3167975847 6.2270485225 7.2679062499 7.0070193012 6.0382631171 5.235404582 8.9567830949 5.456931135 
-0.056520124668 1.1636161092 1.4317328514 2.9172412248 1.1593167699 0.54890682937 -0.91519640908 -1.451043928 -1.8020191312 
-5.1160206957 -2.278582714 -4.1037375833 -4.4964540212 -5.8855842802 -5.8872134649 -3.2449891396 -2.6201894817 -0.92962637001 
-2.9129657116 -1.0333015522 2.1436127799 4.4047462962 0.5299991764 0.14251449492 1.9061267849 1.3482187811 -0.90977850249 
-5.0408604654 -4.5941977923 -4.9073060404 -6.1363223592 -4.6882260759 -4.8305373043 -5.6541418599 -5.1776576126 -5.4352441039 
-2.7753427509 -0.96951764484 -2.8122206757 -1.4851012958 -3.8905140875 -5.4563210712 -5.3203143536 -3.3789623398 -5.8867583664 
-6.2854130934 -0.46571949519 -2.7994773564 -1.8079512143 -4.6122559835 -2.0428589894 -0.17246049725 -1.6964465686 -3.3117055816 
-4.1398308551 -3.148145913 -3.1535208362 -0.42731757821 1.2213487049 3.8657409031 1.7803477341 1.5575367861 5.6185224691 
3.1092197631 8.4593566673 7.3320121406 6.0961600767 6.5476842871 7.2499710885 2.4227127398 3.604443942 3.4574682091 
0.66377336518 2.4696760323 1.1000419648 0.54586091311 4.09455478 6.7510883554 6.4111946036 -1.0525639817 3.1691594083 
6.1363865607 -0.64113952248 8.133058871 6.5488672792 3.1779887523 4.553697781 4.9319410057 4.2812357775 3.6333690456 
3.9863663194 4.7323045134 2.071730768 0.046041234825 1.3461450517 1.3767357135 3.4272281688 0.11924314074 -1.718575114 
-0.56998162848 1.6890983465 2.7506232031 1.591724979 0.87867948 3.3615064157 2.389685371 5.277175725 0.58668550492 
6.2660380837 6.1889830121 0.27547340952 5.1831957577 8.9844457589 6.1749568027 6.9372875008 4.768179227 6.1951401858 
3.0231532218 4.7686980617 -1.4997209307 -1.6857851418 0.96612068674 2.4713068287 0.36736115712 0.81485142616 -2.327240804 
-1.9143156066 -2.0542780922 -0.54041543288 -5.0805056887 -6.0587240594 -1.4385995527 -1.7771163749 -3.7966893416 -0.40924176084 
-4.8655698594 0.46020359541 -2.9197359491 -0.47369475231 2.9349852951 -1.2701888168 1.4313560679 2.6201452016 -1.2577023885 
-0.27453926763 -2.1857839983 -3.9323021561 -3.1740032726 -5.326942902 -2.7475538876 -4.9500043343 -3.9560147787 -3.7192718149 
-4.4576813782 -2.6715248223 1.2451389534 0.23775270006 -0.94885791943 -2.3356189008 -2.6254564947 -2.8879760832 -1.8424982761 
-5.0148333168 -4.4774450028 -2.1812667852 -1.9014317735 -2.9085838421 -3.4038737831 0.10023658506 -1.91150958 -0.82994069523 
-1.1166204069 -4.3128858045 -2.5438643434 -3.2274276725 0.031516593363 1.9461491462 1.0291646154 2.4135727068 4.3209810054 
5.1880412382 4.3309078143 7.473604827 5.1956409995 5.6863486836 1.2786847409 4.3026877141 2.2373981776 1.6956858847 
1.182290306 1.2578484271 0.73061991419 2.3778737149 0.58878522299 0.83508682665 4.8711103504 4.7554780523 8.9099664669 
-0.56718230928 3.4250896104 7.5258643448 6.2653363574 6.2843520844 -0.51755080014 0.9794253687 1.6623098888 5.6180191053 
0.63962547067 3.226379384 2.3140429168 1.5511428217 0.99995088625 -0.9876045221 -0.059166106253 -0.95479174191 1.4058273819 
0.92204041302 2.2284919194 0.46206457201 0.062013252072 2.7400459395 1.2091498525 
