# vtk DataFile Version 5.1
vtk output
ASCII
DATASET POLYDATA
POINTS 1244 float
0.109056 0.118905 0.127423 0.105083 0.120382 9.78036 0.104565 9.79705 0.0989705 
0.106041 9.77651 9.78665 9.78646 0.0903506 0.102054 9.80034 0.101575 9.7755 
9.76037 9.79063 0.10036 9.81362 9.79943 9.7876 -0.0492566 -0.0528744 1.04921 
0.0257624 0.0151847 2.02501 -0.00500182 -0.00938811 2.9909 -0.0179114 -0.011102 4.00008 
-0.022693 -0.0297451 4.99937 -0.0138633 -0.0014483 5.99804 -0.00913037 -0.00348236 7.0079 
0.0296471 0.00776395 7.97432 -0.0469379 -0.0648578 8.94721 -0.0158043 1.00043 0.0153733 
-0.031279 2.02406 -0.0340094 0.0093125 3.00211 0.0606659 0.018284 3.96531 -0.0120505 
0.00829492 4.99915 0.00835178 -0.0145598 6.03426 -0.00310379 0.0756002 6.99758 0.0669481 
-0.0217364 7.97652 -0.0256503 -0.0258425 8.99615 -0.0113349 -0.0468429 9.8767 1.0344 
-0.0125993 9.79845 2.00693 0.0187072 9.82815 2.99952 -0.00744021 9.80415 4.00653 
-0.0536934 9.84993 4.99942 0.00624264 9.79236 5.99503 0.0367211 9.82301 6.99861 
-0.0281112 9.80146 7.98999 -0.0449727 9.87199 8.96093 -0.0282903 1.00494 9.85935 
-0.0666325 2.03297 9.84374 -0.00317133 2.99674 9.74488 0.0149666 3.964 9.84923 
-0.0147798 5.00046 9.85884 0.00703703 6.02765 9.84112 0.0481268 6.99948 9.83401 
-0.0462037 7.96389 9.8302 -0.0452657 8.99488 9.87408 9.89324 -0.0668369 1.04378 
9.79138 -0.00715783 2.01171 9.84892 -0.0240018 3.00795 9.8054 -0.0146027 4.00506 
9.8704 -0.0770366 5.00312 9.79608 -0.0086224 5.9947 9.84849 0.0222656 6.96574 
9.84251 -0.0368948 7.97833 9.91864 -0.0610493 8.95523 9.86438 1.00383 -0.0329186 
9.83652 2.03744 -0.0328565 9.72893 2.99937 0.0545489 9.85781 3.96885 0.00528134 
9.85878 4.99823 -0.0146785 9.8318 6.0332 0.0164905 9.82589 7.00043 -0.00823987 
9.82658 7.96582 -0.0306936 9.86047 8.99614 -0.0310915 9.90717 9.90849 1.05094 
9.8189 9.78541 2.04462 9.85627 9.83196 3.00975 9.87127 9.87139 3.99004 
9.91586 9.87795 4.999 9.87352 9.8732 6.00704 9.85964 9.84091 6.97829 
9.79393 9.79737 7.96096 9.91221 9.91568 8.93213 9.89358 1.00815 9.85654 
9.87149 2.04466 9.89088 9.88155 2.99628 9.79276 9.85341 3.95041 9.8472 
9.83563 4.99957 9.84411 9.81787 6.04239 9.86254 9.88137 7.00462 9.85101 
9.8695 7.95648 9.84896 9.85194 8.99069 9.8667 1.02269 -0.023964 -0.0376394 
2.02612 -0.0341277 0.0428906 3.0016 0.0165741 -0.0197968 3.9842 -0.0165148 -0.00359419 
5.00245 0.00657023 -0.00564828 6.01586 0.00829709 0.00138468 7.00198 0.0123777 -0.0143997 
7.97125 -0.0242087 -0.00892395 8.98623 -0.0120854 -0.0286745 1.02351 -0.0532989 9.86444 
2.04031 -0.0547944 9.78524 3.00582 0.0585108 9.82201 3.96832 0.00683299 9.8122 
4.99844 -0.0295254 9.8187 6.03368 -0.0284299 9.81618 6.99789 0.0559491 9.81654 
7.96941 -0.0853847 9.77876 8.97503 -0.0901294 9.87462 1.01624 9.88102 -0.0222981 
2.02221 9.86362 -0.00759605 3.01238 9.80359 -0.00657387 3.99443 9.86652 0.00162139 
5.0019 9.85644 -0.00708801 6.00493 9.85871 0.00183057 6.99114 9.85337 -0.0305462 
7.97722 9.85375 0.0107164 8.98495 9.87098 -0.0211488 1.02014 9.86532 9.85735 
2.05529 9.8916 9.81858 3.01083 9.85921 9.88814 3.95979 9.83097 9.77792 
5.00627 9.86541 9.79807 6.04014 9.86768 9.83003 6.99552 9.92249 9.87797 
7.94578 9.86128 9.81269 8.97873 9.8533 9.86491 -0.192331 0.319312 4.99962 
-0.214238 0.283769 1.89097 -0.185573 5.65186 1.91367 -0.201129 8.3298 3.46186 
-0.162231 8.33521 0.369002 -0.215716 5.65345 8.08737 -0.127597 8.34168 9.61596 
-0.201646 8.32947 6.53768 -0.196109 0.289161 8.1056 -0.0881201 2.9797 9.60063 
-0.0975671 2.97642 0.351235 -0.486196 5.65177 5.00019 -0.293431 2.98691 3.4626 
-0.278165 2.99073 6.53315 -0.0551106 0.297212 9.61713 -0.155336 0.28452 6.54878 
-0.14988 0.29277 3.44896 -0.074697 0.28953 0.381981 -0.19135 4.31594 8.8625 
-0.177846 5.64192 9.62131 -0.207862 6.9878 8.88064 -0.32309 6.99529 7.31258 
-0.242771 8.32388 8.08777 -0.129963 9.58756 8.88016 -0.200346 9.66655 7.31096 
-0.15938 9.65703 5.78287 -0.149975 4.31519 1.13699 -0.144361 5.64157 0.358116 
-0.319676 6.99773 2.68625 -0.204742 6.98678 1.12198 -0.228818 8.32507 1.91042 
-0.157168 9.6429 4.21457 -0.181576 9.65778 2.689 -0.151262 9.58775 1.11993 
-0.296715 8.33471 5.00054 -0.349371 6.98956 4.23092 -0.329473 5.64989 3.45581 
-0.328251 6.99223 5.76838 -0.335622 5.64906 6.53708 -0.322205 4.31481 2.68369 
-0.224837 2.9802 1.91391 -0.202813 1.63877 1.12478 -0.271267 1.63382 2.67885 
-0.27151 1.64235 4.23125 -0.333369 4.31393 7.30864 -0.22883 2.98135 8.0822 
-0.255055 1.64516 5.76688 -0.29186 1.63538 7.31895 -0.201923 1.64499 8.87783 
-0.391328 2.97393 5.00091 -0.448554 4.31439 5.76509 -0.421855 4.31238 4.23278 
-0.115845 0.365752 8.88727 -0.161252 0.310351 7.31402 -0.157213 0.3033 5.77398 
-0.158099 0.30319 4.22484 -0.182806 0.304283 2.68456 -0.122888 0.366044 1.11214 
-0.160262 3.66239 9.2434 -0.17064 4.32632 9.61616 -0.125993 4.98269 9.23946 
-0.263845 4.98317 8.47598 -0.177045 5.64927 8.86676 -0.268211 6.32523 8.47926 
-0.222055 6.31497 7.70672 -0.224248 6.98656 8.08289 -0.192814 7.67258 9.2421 
-0.281187 7.66385 8.47307 -0.208068 8.32403 8.87417 -0.191558 7.65149 7.7053 
-0.258869 7.65375 6.9285 -0.278384 8.32759 7.31761 -0.208453 8.9945 9.24986 
-0.0365108 9.67056 9.61072 -0.286381 8.99455 6.92547 -0.28096 9.0047 6.15764 
-0.152946 9.6982 6.54832 -0.193495 9.6357 8.09505 -0.19733 9.00499 7.70029 
-0.262984 8.99825 8.47011 -0.0984905 6.98856 9.65472 -0.162171 6.30684 9.23947 
-0.149142 3.65753 0.754821 -0.151448 4.32421 0.359793 -0.23964 4.98277 1.52156 
-0.127361 4.98384 0.760435 -0.158107 5.65155 1.13706 -0.224644 6.31296 2.29376 
-0.264748 6.32468 1.52036 -0.201352 6.98715 1.91657 -0.290349 7.64721 3.07151 
-0.181276 7.65382 2.2933 -0.277291 8.32658 2.68284 -0.26418 7.66074 1.52706 
-0.11699 7.66683 0.761166 -0.220044 8.32603 1.12219 -0.281089 9.00555 3.84178 
-0.279935 8.99634 3.07123 -0.153262 9.68771 3.45213 -0.153089 8.99821 0.747017 
-0.0369957 9.66894 0.38818 -0.166102 9.65055 1.90297 -0.22287 8.99481 1.53032 
-0.18186 9.00459 2.29734 -0.189895 6.99154 0.327856 -0.13448 6.30658 0.75979 
-0.182161 9.56715 4.99897 -0.206239 8.99352 4.61202 -0.275969 8.31802 4.23458 
-0.21293 8.99889 5.38727 -0.262948 8.31703 5.76434 -0.357291 7.66697 3.82951 
-0.284331 6.97853 3.46396 -0.300239 6.32458 3.06825 -0.320397 5.65246 2.68442 
-0.417778 6.3208 3.83845 -0.397044 6.315 4.61935 -0.424133 5.65072 4.23329 
-0.333562 7.66341 6.16862 -0.281727 6.97766 6.53634 -0.390326 6.3151 5.379 
-0.411513 6.32017 6.15882 -0.421135 5.65108 5.76903 -0.294669 6.3226 6.93229 
-0.325063 5.65223 7.31069 -0.427548 6.98866 5.00052 -0.304163 7.65331 5.37704 
-0.307991 7.65223 4.62156 -0.197807 4.98289 2.29685 -0.184782 4.31416 1.91356 
-0.263925 3.64259 1.51976 -0.18835 2.98086 1.12698 -0.221156 3.64972 2.29638 
-0.296232 3.64347 3.06958 -0.339701 2.96595 2.68206 -0.20226 2.30662 0.744839 
-0.0987165 1.63589 0.379569 -0.16972 0.96622 0.744434 -0.217533 0.972896 1.5303 
-0.282132 2.31506 3.07223 -0.342789 2.30014 3.83316 -0.214924 1.64124 3.46289 
-0.200446 0.961027 2.29887 -0.285598 0.971788 3.07518 -0.264471 0.958942 3.83741 
-0.209857 0.970787 4.61813 -0.269564 1.64165 1.91234 -0.191706 2.3133 2.29442 
-0.246158 2.29846 1.52239 -0.205532 4.98296 7.70394 -0.221717 4.31236 8.08708 
-0.30828 3.64279 6.9352 -0.237828 3.65146 7.70607 -0.314869 2.96872 7.31133 
-0.25613 3.63831 8.48003 -0.192819 2.97766 8.87836 -0.335498 2.30309 6.16849 
-0.289976 2.31066 6.92948 -0.218688 1.63628 6.53546 -0.209473 0.969851 5.38169 
-0.269472 0.959136 6.16145 -0.289569 0.971241 6.92338 -0.164425 0.966874 7.69578 
-0.206393 2.29578 9.23811 -0.122826 1.62649 9.61798 -0.220193 0.967511 8.46728 
-0.205148 0.971717 9.25211 -0.259207 1.63987 8.09153 -0.269473 2.30434 8.46877 
-0.181962 2.31155 7.70597 -0.287361 1.63229 5.00007 -0.285927 2.30821 5.37616 
-0.334446 2.97333 5.77123 -0.284388 2.30999 4.6212 -0.314801 2.9748 4.22648 
-0.432675 3.64621 6.15915 -0.355577 4.31643 6.53596 -0.308769 4.98359 6.93448 
-0.462443 4.98191 6.16207 -0.453786 4.98371 5.37866 -0.406646 3.64756 3.84127 
-0.328342 4.31589 3.45643 -0.444268 4.983 4.61821 -0.476706 4.98494 3.83175 
-0.300611 4.98138 3.06899 -0.507414 4.31792 5.00002 -0.395115 3.64755 4.62012 
-0.419787 3.64662 5.37959 9.85346 0.377377 4.99861 9.95605 0.297287 1.89591 
9.7249 5.64932 1.90511 9.80004 8.32445 3.45905 9.92696 8.33702 0.368551 
9.72459 5.64931 8.09223 9.92531 8.33925 9.62338 9.80028 8.32523 6.53994 
9.96057 0.309151 8.10462 9.8929 2.97998 9.56917 9.95524 2.97718 0.340978 
9.49064 5.64416 4.998 9.69697 2.99169 3.45186 9.69653 2.99167 6.54749 
9.92659 0.289725 9.62882 9.88154 0.307528 6.55563 9.92755 0.280436 3.45084 
9.92046 0.289725 0.367308 9.87703 4.31185 8.85365 9.92518 5.64175 9.6217 
9.85771 6.98893 8.85509 9.70555 6.99143 7.3134 9.76874 8.3313 8.09267 
9.93244 9.53538 8.8894 9.91385 9.62676 7.32752 9.92981 9.59938 5.75293 
9.88609 4.31222 1.14187 9.92035 5.6418 0.367664 9.7051 6.99185 2.68571 
9.82027 6.98741 1.14252 9.78243 8.3324 1.90774 9.92986 9.59973 4.24497 
9.90744 9.62172 2.67424 9.90193 9.52799 1.11845 9.76784 8.32897 4.99946 
9.6558 6.99335 4.22988 9.65505 5.64686 3.45582 9.65578 6.99352 5.7692 
9.65501 5.64687 6.54321 9.73537 4.3148 2.68516 9.74218 2.97351 1.91006 
9.89636 1.64431 1.13933 9.78215 1.64708 2.68428 9.78051 1.63723 4.2269 
9.73532 4.31479 7.31288 9.73492 2.97389 8.08916 9.78078 1.63721 5.77192 
9.76872 1.6471 7.31503 9.88472 1.64537 8.85521 9.60863 2.97171 4.99967 
9.45757 4.30884 5.77061 9.45905 4.3081 4.22643 9.87898 0.36941 8.87623 
9.86208 0.31226 7.32746 9.95403 0.317158 5.75583 9.93914 0.319848 4.24245 
9.87555 0.310309 2.6752 9.8906 0.366953 1.11889 9.85524 3.65954 9.25261 
9.92346 4.32779 9.61823 9.82776 4.98479 9.25386 9.85964 4.98312 8.46893 
9.86076 5.65104 8.85558 9.85136 6.31727 8.46335 9.74878 6.31971 7.70164 
9.73555 6.99011 8.09077 9.8488 7.67446 9.2505 9.85444 7.65081 8.46344 
9.88488 8.31942 8.85749 9.79208 7.65335 7.70231 9.68096 7.66322 6.91767 
9.76073 8.31959 7.31628 9.9279 8.98812 9.24599 9.92053 9.66541 9.61617 
9.87926 8.98592 6.92807 9.85596 8.99653 6.16524 9.924 9.66008 6.55053 
[...]
CELL_DATA 2484
SCALARS scalars double
LOOKUP_TABLE default
-5.9131201758 -5.036819306 -1.4136358375 -1.4838605707 -6.1032828614 -4.424771896 -4.4849426195 -4.3059394538 -4.1362635491 
-4.6781495729 -4.3688051725 -4.0481633874 -4.1705123531 -4.6986990057 -5.2231365281 -6.3364754799 -1.6597249911 -5.2480117054 
-1.8308067007 -1.5249662305 -6.5248920867 -4.002463118 -4.3690234382 0.39899226152 -0.38965013192 -0.31273051555 0.34951123167 
-2.2269676192 -0.039905677387 -0.7737167325 1.0025025854 0.23979459988 0.82820748254 -0.28568937483 -1.7967984531 1.6355519609 
-0.43510145696 0.78456249192 -0.73861922459 0.30356711117 -0.38631348781 0.37111307648 0.83579567819 0.40920389257 1.4618154764 
-1.0155347625 0.27671241532 -0.78331105144 -0.097854274623 1.2090475776 -0.95527818494 -0.16856978227 0.21997705305 1.932591277 
-0.13377866749 1.104179632 6.4350914436 2.6063080381 2.1790311701 -1.2143588261 1.5763303058 1.8236466706 1.8397691897 
8.2260117851 7.9700760993 8.4565931032 8.3488440349 6.8484816998 0.62058245751 2.6050858942 7.167008603 -0.6943306802 
0.92774774621 0.54709323359 1.7336624084 -0.54861631199 -0.61699350899 -0.39526137888 0.18220194024 1.5973907204 0.0059751787438 
0.58823575643 -0.5563411954 -0.52045156928 -0.7280128704 0.064264858844 -1.0602456914 0.23087181323 -0.55071397333 0.27349164233 
2.2822079411 -0.58773394255 0.072804089287 0.37373800843 0.093372217929 -0.17424781488 -0.023528872788 -0.0060670097822 -1.6514653875 
-0.48707330368 1.0097390611 -0.36326997529 0.36707952755 -0.24580281257 1.4065392856 -1.3440776836 0.35095467504 0.42450248044 
-0.87692301254 -0.50413951217 0.92768365488 0.63881889289 1.2543625351 0.74415054368 -1.0569869629 -0.60553476678 0.26690581351 
0.59502419339 -1.1247216244 -0.49879609721 -0.091053544435 -0.90408384137 1.1572230616 -0.30675131687 -1.1746289093 1.8747867368 
1.640446356 1.8216490547 6.3258910041 7.6643259851 7.7735526223 7.0574860806 0.9378653922 1.0748380618 1.9794450323 
0.81770968874 3.2793348223 3.078201859 5.1859710397 6.8986094289 7.2679025812 0.58953288199 7.6359791218 0.56898098003 
0.025644257719 0.49748909748 0.75130131609 1.0417803905 -0.60388320058 0.68412891349 0.38859014283 0.12302685183 1.0142691794 
0.56427945962 1.1863537363 1.4632813731 -1.3587575663 -1.4461300978 -0.12075371338 0.25705447987 -1.3692863247 -0.60747168157 
1.35806377 -0.92626746867 1.1669506434 0.0092641226984 -1.7442193558 4.1354489798 1.3444613807 7.168829013 4.1356879607 
-0.6290713653 1.1891673417 0.48218302874 1.3332259572 0.98482173494 -0.71776004602 0.24316313457 1.3056979848 0.68452425759 
0.5946191597 0.47965731314 1.8016518959 0.1791168525 -0.61089191579 -0.59583955597 -0.82881011328 0.4083403731 0.36613859194 
0.85736010473 0.85980148802 -0.61645075592 0.87261347901 0.25222848588 -0.43904480018 1.5102251224 -0.031247907651 1.1425074285 
1.4046828784 -0.43428127597 0.6534418637 -0.2292075413 1.070388509 0.95375396607 -0.50032464048 0.30298762416 -0.93908001842 
0.5284202367 0.70492707131 0.97902731722 -0.27564991283 -0.12264673119 1.585033061 1.0896518353 1.3814708375 0.17209827517 
0.12124477263 -0.50223839301 0.1433147419 1.5322943079 0.35757316823 0.84037420666 0.25415110094 0.31921276138 1.7965213051 
0.84717383308 0.1371836321 1.2072541741 1.1106266157 1.7992692664 0.49059499896 -1.0767060679 0.81281044647 -0.50270840321 
0.83749630153 -0.06356757665 -0.86227215819 -0.2456820706 -0.94071098714 0.88648396457 0.30658617129 1.1777256709 -0.26049168291 
-0.47243755413 1.4240773984 0.85576390739 0.71724548675 -0.77483942952 0.21935113969 -0.42483457767 -0.14840781928 -1.1047547962 
-0.69333987042 -1.1375973053 0.29556568825 -0.23663013515 0.29063714421 -0.26083276178 -0.090325279702 -0.57515444394 -1.5064785463 
-1.4556741974 -0.43356762441 -0.035433661833 -1.7476012084 -0.89649890038 -0.50866545684 -1.648532245 -0.52020613243 -1.1865859017 
-1.8313859802 0.3206310881 0.64009372747 0.88267731231 0.069084107237 -1.0286349029 -0.29329152829 -0.89334459597 0.50840883224 
-0.51906945197 -1.336801574 -1.5497566019 -0.31412145582 0.577159667 0.86322348576 0.52165688842 -0.093111145073 -0.14597807121 
1.15723897 0.76230192203 0.27918425538 1.0455110119 -0.85354028547 -0.18958862242 -0.88071931191 -0.16787202814 0.48418404819 
0.60037950394 0.2496120605 -0.68520298623 -0.29456357259 -0.19576467776 -0.26939704484 0.73431589542 -0.57560033802 0.37604861645 
0.51767081221 -1.4827765878 -0.50819398992 -1.3982922992 -0.23349466486 -0.52227583743 -1.677514416 -1.233641162 -0.97869253379 
-1.912431804 0.20430229754 -0.96999357538 -1.7964230045 0.51844367596 0.48439356599 0.89957407523 1.0755427859 -0.64633452551 
-0.31167675047 0.079076561821 0.15395623468 -0.94214515625 -1.8334359699 -1.5741002481 -0.60285006004 0.64587018537 0.030301179485 
-1.7166583925 -0.36617271627 -0.17200560591 -1.6385737463 -0.97652909009 -0.51698421957 0.94818864934 0.85681231446 0.63193500259 
0.81898425253 -1.3187802834 -0.102790106 -1.1668914766 -0.05466880125 1.3736715926 -0.56777215996 0.49038841908 -0.26617393944 
-0.919342735 -1.0387938834 -1.1657009444 -0.83289188683 0.44583361461 -1.1565733794 -0.35557802963 -0.62734506102 -1.0342254162 
0.57149609386 -0.01729018373 -1.5768945194 -0.071906164618 -0.21496685049 0.032514311713 -1.4138130245 -0.53182183532 0.46902332802 
0.24531731377 1.1008491973 -0.9442568158 -0.32102473896 -0.9844765031 -0.14212310795 1.2553357265 -0.0057201253487 0.5522566961 
0.76626201095 -0.91624989811 0.52793750769 -0.4775149033 -0.88386541887 0.47534965963 -0.43176874584 0.34299247617 -0.56906305153 
-0.16428302456 1.4966684681 0.53883476514 1.076517762 -0.3626936719 -0.80388690593 -1.0439881203 0.87981162956 0.36989268887 
-1.5092909024 -0.89760960925 -0.55484680894 0.30593337291 0.36566653192 0.87370909694 -0.31575134103 -1.5207525683 -0.61109044956 
-1.2699389914 -0.33501469889 -0.83320427222 -1.8713667989 -1.3514067757 -0.23982707792 -0.86678119953 -1.035526313 -1.4730029489 
-2.9504752326 -4.2564928562 1.0880290637 0.81727906265 -2.8038465744 -0.78634364117 -1.8168887056 -3.8768331324 -3.7699867217 
-0.50479577962 0.38100241449 -3.7437701253 -3.0983787444 -1.5007823743 -1.3788969443 -4.3635714328 -0.008005996606 -3.8677838395 
-1.3261537073 0.20287184038 -4.4387967824 -3.1966222553 0.35652693806 -0.29326823509 0.26663280548 -0.69365722362 0.46239861486 
-1.3992827364 0.49028786738 -0.99672902464 0.99633763787 -0.25199793429 1.0981800429 0.17007648516 -1.4139762913 1.3510339847 
-1.1300252804 0.82356987771 0.42025647914 0.96392510641 0.09013156159 -0.86301411117 0.43034107645 -0.50578235496 -0.46656710874 
0.40682361896 -1.4988840268 -0.34879831891 0.80900792938 -1.0723851719 -0.88241781993 -1.3186059649 0.66381583419 0.021300108325 
0.11955612914 -0.55625879425 4.7800822991 0.52324621711 0.88068150236 -1.0021721369 -0.60390159215 -1.1100827236 -0.83789638 
3.6253583872 2.0921223594 2.8606657662 2.8291077115 6.0560624171 -0.36453051282 0.45087120956 6.7034304333 -1.4703403998 
-2.0204688442 -1.9067693955 -0.12966087314 -1.4238826377 -0.3410797483 -0.59823086405 -2.1231216629 -0.67104097806 -0.72766517157 
-1.1738106247 -1.2892638468 0.59074262654 0.1262946408 -0.24231080659 -0.89024481657 0.93901263712 0.29254427998 0.086664423958 
1.9617925102 -1.1041294373 -0.86074975937 -0.64008432124 0.65705118566 -1.3423666599 -1.3136169908 -0.047305587623 -1.7807348521 
0.85001734942 0.75231111585 -1.4483570807 -0.77645715895 0.31819252783 1.5046243274 -1.3535154387 1.5708847343 1.3210794419 
-1.00193552 0.41158483471 0.83837292501 0.81453459913 -0.39653531376 -1.4404481225 0.20408199777 -0.31548632318 -0.23541084963 
0.21157578032 -1.1445448832 -0.65760858527 0.45356804822 -0.98653511523 -0.9092538498 -1.1395130878 -1.0131451926 -1.2531724401 
-0.67656992926 -1.0905460704 1.7042567427 3.3435837159 4.1692804236 2.4619835299 0.099127136962 0.53056874445 1.8665519141 
-0.53477736212 -0.29123899953 -0.072993113561 7.0579241265 5.6203713442 6.1942503935 0.31275184349 3.1352138782 -0.28068653914 
-1.2589377285 -0.57661654667 -0.37524439009 -1.7642816705 -1.5514839274 -1.9231284797 -1.76871859 -0.80629799668 -0.42963543412 
-1.1078108314 0.25024610744 0.51060040375 -0.035724315336 -0.42453244046 0.24063968193 0.94809705294 -0.48587681649 0.67392325869 
1.5971840202 -0.10621584286 0.029253652713 -0.32185981866 -1.8672904738 -1.5084769244 -0.83258429223 1.6352093663 -1.5076960712 
-1.021161821 -1.9252149586 -1.5503264169 -0.82811084025 -1.9267065255 -1.0229157435 -1.5510498102 -1.9691689723 0.071419049495 
0.067737953053 0.71386253629 -1.8581552228 0.25994790663 0.12200667438 0.2745372434 -0.33263720976 -0.26733590993 1.1617669529 
0.7991075776 -0.65930013301 -0.9818784726 -1.5646620843 -2.0020591238 0.44670064409 -0.61782494491 -1.2300001647 -1.0305455448 
-1.8023176369 0.0010982530457 0.26220789033 0.21481911953 -0.6589070013 -1.5817028157 -0.99923124488 -2.0342632639 -0.3387499019 
1.1600252396 -0.26924983885 0.79856733859 0.44725953984 -1.2331332169 -0.61834929404 -1.031105936 -1.4487780754 -0.62811770379 
-0.62956800334 -0.28926693666 -0.82000240038 -1.6442165594 -0.37672076033 -0.93067600672 -0.75990099282 -0.37494532567 -1.7561275438 
-0.98688078508 -0.34049642375 -1.6721397132 -1.6719281701 -2.0053862646 1.215914639 -0.69297665758 -0.39759304082 -1.1614717832 
-0.82566930077 1.1612634759 -0.68422991816 0.27081566783 -0.74126079536 -0.32575599749 1.3071340981 0.46054619788 -0.79855921716 
0.28763044603 0.52055825117 1.0082278933 1.4260151492 1.5205175922 -1.5430534604 2.0559715781 0.55367795055 -0.36784655624 
-0.20150440594 -0.71161730045 0.1526943502 0.26277054778 -0.037084090199 0.33180144508 -0.65262385154 1.3335982661 1.5447326083 
1.5780415862 1.4762571076 0.2670405801 0.4879971246 -0.11713968715 1.0045595956 1.6123860906 0.38801127343 1.3708582062 
1.1684235879 0.48553209585 1.1400706218 0.6699643086 0.54574882178 1.7088323842 1.5058362415 2.0376487751 0.57348145055 
-0.04827491699 0.82569499895 0.41285406954 0.93311872184 0.85609707137 -1.2067449264 -0.21932251771 1.1414125264 -0.22350151782 
-0.03984484688 -0.56259219824 1.264677351 -0.39831031882 -0.84174138782 -1.2053432733 -0.74078358862 1.3030312692 -0.38257182462 
0.45957815486 -0.56017782653 -0.36752876093 0.38856528382 0.40797576216 -0.79404723374 0.35032663755 0.29091721088 0.89393966594 
-0.023211325951 1.550559143 1.218757487 1.5714739504 0.9949603771 0.51057282943 1.3994842407 1.5899579517 1.4172905888 
0.34079091751 0.42411548764 -0.058560379334 0.67584320101 0.94926362497 0.47582135257 0.52454735722 -0.052909358144 0.14860098875 
0.22704610411 -0.0065811248919 0.41856163524 0.31951648571 -0.32921628403 -0.57485455934 0.30666244874 0.70706203171 1.023007782 
-1.3378292231 0.57202128541 1.151882479 1.6951963843 1.8806499284 0.57252683221 -0.21802581752 0.40625710328 -0.30445775121 
0.35398447545 0.89745271624 -0.027295634181 0.42939874703 1.0770841271 -0.26906838672 -0.056447971467 -0.61137585462 -0.30806174002 
1.4453167008 1.4522748379 1.5357347388 0.94850396775 0.13166764947 1.7116086331 0.91514143504 0.94327571656 1.7116986132 
0.13212544189 0.9170235088 2.0422384083 0.40163088965 0.40360601498 0.31319465455 1.0825780788 -1.0491118187 1.1523339979 
-0.31185958903 0.64084674837 0.41674479677 -1.0469104705 -0.66382445385 -0.88554282651 0.027757464321 -0.20234596481 0.65272243697 
-0.87803243956 -0.20350725083 0.97332199268 0.75415231076 1.0677130119 1.1252306068 -1.1053850174 -0.40292690847 -0.89101992559 
-0.17054608247 0.011132181048 0.64583973287 0.64177961978 -1.0493388672 0.41301626439 -0.66643883028 -0.87965420485 1.0302710003 
-0.1391099724 0.86757291973 -0.30620645711 -0.0032910418833 0.034534250364 0.20609550991 2.168936102 0.62670669384 0.79349268477 
0.72657702457 2.1655642132 0.79411221215 0.66549677564 0.74778158705 0.45695037592 1.578812886 1.5709540575 1.3855946709 
-8.0789276513 -7.3653673817 -9.765125432 -9.7578500854 -7.8543585661 -6.5078070211 -6.1276981978 -5.6556012321 -6.4393098338 
-6.9211961866 -9.7694405974 -6.4941431726 -7.3703944336 -7.7758421843 -7.2438037885 -3.9985413781 -9.4407996144 -6.5583555162 
-8.4482758419 -9.4293667296 -3.8779855088 -7.1665772772 -9.7398336423 -9.7428333458 -7.2200433372 -9.9812521187 -9.6797729817 
-9.3782128345 -9.8054794912 -9.9503163324 -9.9429611378 -9.8053717501 -9.9533588156 -8.6194286201 -9.7241799409 -9.814017972 
-9.9868078831 -9.9916247093 -9.9434303184 -9.9975240456 -9.9843632983 -9.9461262872 -9.9414843062 -9.9582480897 -9.8048401273 
-9.8725884287 -9.9268693096 -9.8478012417 -9.9219584248 -9.8213473143 -9.9954933738 -9.9332061835 -9.6950869417 -9.8697649515 
-9.5055529051 -9.680261641 -7.9963888407 -9.8385893785 -7.3707639743 -9.9668586228 -9.8543305501 -9.8664920749 -9.8180300578 
-8.6701914171 -9.1178239868 -9.4465431958 -9.0432034051 -8.2497147755 -9.9432255999 -9.8240980814 -8.1225061662 -9.9380703403 
-9.9069063791 -9.9026507015 -9.9121100368 -9.94397096 -9.931796223 -9.963048663 -9.9531159994 -9.9177095687 -9.9936936591 
-9.9690558635 -9.6016445715 -9.8844306969 -7.2639702012 -9.9237065814 -9.9685794854 -9.9904094769 -9.924630324 -7.4615283524 
-8.9642055719 -9.6762049081 -9.8953948468 -7.2821535763 -9.6815528117 -9.4628533144 -9.9940965745 -9.0907534909 -9.4722707478 
-9.9517147953 -9.981717791 -9.9900661751 -9.9543109731 -9.2157770262 -9.7153637149 -9.6959819735 -9.9958405781 -9.8232335046 
-9.9533450205 -9.9018164368 -9.9874418951 -9.9912599811 -9.8062866923 -9.9284997095 -9.925967 -9.8956460941 -9.9979225397 
-9.9558700801 -9.9397990893 -9.9711540603 -9.9539720685 -9.9981438088 -9.8108813982 -9.9643748725 -9.9466202233 -9.8687723482 
-9.8735229809 -9.8423258554 -9.0037452187 -9.1159626134 -9.262467372 -9.0513598227 -9.8823805848 -8.5612343412 -9.7710736299 
-9.7629500882 -9.8478954342 -9.8921498602 -8.4920116736 -8.2321939556 -8.15083974 -9.8472799185 -8.9086911904 -9.9710374104 
-9.9507297507 -9.9602365907 -9.8920892994 -9.8806421213 -9.9441224305 -9.8666954709 -9.9102513954 -9.9837635321 -9.8493275321 
-9.9346865706 -9.9222164007 -9.6908988209 -9.2015327663 -9.8518051902 -9.9116801884 -9.9924379072 -9.9386121008 -9.9087593991 
-9.6147598328 -9.9339027129 -9.2050087323 -9.5876415639 -9.6312176494 -9.7081442277 -9.9344457938 -9.0628839748 -9.6954801585 
-9.9256900621 -9.9332212136 -9.9448857083 -9.9459447736 -9.9274207657 -9.9664719749 -9.963965294 -9.9177086987 -9.9573212066 
-9.9362967825 -9.9268364644 -9.8530414508 -9.9746022364 -9.9629783569 -9.9775156836 -9.914166449 -9.8457497159 -9.9970397088 
-9.9206764468 -9.9263995745 -9.8885297948 -9.9412551882 -9.9946057619 -9.8442243768 -9.7948878485 -9.9806711286 -9.7717481498 
-9.8471168061 -9.9820886654 -9.9912309922 -9.9719180266 -9.9257826524 -9.914525778 -9.9213823207 -9.9921457054 -9.9591773046 
-9.9670373729 -9.8285528045 -9.89814486 -9.8481432113 -9.9964411355 -9.8439069766 -9.8044779404 -9.9155427737 -9.9305648465 
-9.9467658799 -9.9936677865 -9.9800047064 -9.8469253367 -9.988438658 -9.9503935648 -9.958729735 -9.9991692694 -9.8514945936 
-9.9767073741 -9.9989271994 -9.8312202185 -9.8521494723 -9.7968204132 -9.9856963179 -9.9768581902 -9.8320640336 -9.9913378745 
-9.8764067759 -9.8400833713 -9.9737561821 -9.8694409333 -9.9237275398 -9.8862770181 -9.9936828048 -9.928781356 -9.973943003 
-9.864392069 -9.9268358966 -9.9640947451 -9.4628180043 -9.9447331916 -9.8428685673 -9.7263056447 -9.9881889883 -9.8880754073 
-9.9337286702 -9.9467942848 -9.9406076336 -9.5026918969 -9.9614724872 -9.6896020468 -9.6780436722 -9.9406779545 -9.8421385377 
-9.8417227378 -9.8873424453 -9.9519832725 -9.824704899 -9.8980338901 -9.9565780484 -9.8690915286 -9.9456931608 -9.936305274 
-9.8063756276 -9.9593705959 -9.9506060434 -9.9634013832 -9.94651322 -9.9113506673 -9.9950229836 -9.9566080574 -9.8837205388 
-9.9909331586 -9.824665752 -9.8301590029 -9.9203389209 -9.97342819 -9.849971313 -9.9109576797 -9.9421064327 -9.9834519137 
-9.920616848 -9.9432383876 -9.9716846827 -9.8756883728 -9.9483146874 -9.9906080494 -9.8119512482 -9.9678731123 -9.9432057251 
-9.8682734986 -9.9532244339 -9.8819413308 -9.9441477138 -9.9052087167 -9.9806532402 -9.9667335215 -9.82352028 -9.9852876975 
-9.9603535223 -9.8525459062 -9.9465406952 -9.8531013027 -9.9493106726 -9.9537454804 -9.9477180221 -9.9781476944 -9.9747452102 
-9.9155349409 -9.9820100215 -9.9476985873 -9.9159780164 -9.9634334991 -9.9521987852 -9.9745808461 -7.3162471287 -9.9436561872 
-9.7226350691 -9.7282010173 -9.9298926983 -9.7761862719 -9.8253562919 -9.7954078834 -9.7843681591 -9.9510626398 -9.9007117339 
-7.9614968309 -9.872437237 -9.9547054218 -9.9721060469 -9.9616494151 -9.9606744746 -9.9115066965 -9.8662009756 -9.8870875437 
-9.8970921158 -9.883842152 -9.9964956091 -9.8664597204 -9.9237851229 -9.9151455632 -9.9650135635 -9.9145796646 -9.9281710762 
-9.9022876934 -9.9196151501 -9.8889672498 -9.9695356143 -9.9467326266 -9.9098393628 -9.9674791923 -9.9528599771 -9.9127916272 
-9.9690524982 -9.9659385963 -9.8835870528 -9.9956557538 -9.9946870255 -9.9974798746 -9.7998700404 -9.9982890293 -9.9303770294 
-9.9146596653 -9.9068847948 -9.8354367618 -9.9965529238 -9.9043010125 -9.9784896736 -9.8533339457 -9.9486315823 -9.9670869521 
-9.8044514687 -9.8762389612 -9.996746159 -9.8200312245 -9.8309332713 -9.9062272716 -9.9942377571 -9.8733775164 -9.9894589796 
-9.9584070896 -9.8517104394 -9.9869475154 -9.8504059844 -9.9962398104 -9.8191628538 -9.8532383052 -9.7796110865 -9.9955550551 
-9.8534366569 -9.7817300121 -9.982212624 -9.9341170243 -9.9392654191 -9.9634997603 -9.9970753938 -9.8572135138 -9.9602153154 
-9.9372433229 -9.9995207146 -9.9564539021 -9.8026123217 -9.9363415343 -9.9931268527 -9.9185604624 -9.9030891641 -9.9031810292 
8.1616387791 8.2648387224 9.9642137208 9.9890471545 7.6759945352 9.3064776314 9.0828403441 9.8544294383 9.9453587805 
9.2817356713 9.994144474 9.7623991584 8.0132517665 8.7311515059 9.001448425 7.0666792103 9.995642288 7.3097983487 
9.1319547083 9.9506585767 6.7538025063 9.9458027309 9.9933505396 9.9875324616 9.9653713168 9.9735751873 9.9804491507 
9.9404852398 9.9769738989 9.8207658355 9.7835280496 9.984852172 9.9343325177 9.7481011167 9.8274089044 9.9333658856 
9.8506951041 9.8447568067 9.993581005 9.8713854421 9.9881731628 9.9721712209 9.8683367774 9.9749813527 9.9362285269 
9.9938578271 9.8646416241 9.8935890351 9.9517582269 9.9849288052 9.8666659347 9.9339217422 9.9799258513 9.9961811444 
9.9557756717 9.9824072294 9.0865217094 9.955058701 8.5923178526 9.9788522536 9.8778340023 9.8962186125 9.8697764028 
9.7062715323 9.0672167833 9.2436382246 9.5647836207 9.4796254404 9.9481758543 9.9551015126 9.467186014 9.9892022109 
9.8864843277 9.941148223 9.992405725 9.8094942951 9.9940305944 9.997182292 9.8280766131 9.9857725933 9.9691168971 
9.9685207631 9.9706090801 9.809817712 9.3778152501 9.9957576063 9.7954406333 9.8441390506 9.9917274403 7.9714924773 
9.5132576701 9.833520486 9.7931871133 9.3582428125 9.8349024133 9.7840334354 9.9255370369 9.7868004223 9.8442303336 
9.9861456139 9.7952502843 9.9551680258 9.9877161244 9.9446263949 9.8963675549 9.954066245 9.9007034637 9.9372443933 
9.8680574917 9.9934457931 9.8578510786 9.8861926273 9.9218960337 9.8460436258 9.9938104292 9.8664705444 9.996907437 
9.8867123468 9.9239935029 9.9792079665 9.9380610425 9.8551993349 9.9764996135 9.8982812921 9.9748939967 9.9039272166 
9.9154331017 9.9009754287 9.3502118843 9.6346872968 9.4013294539 9.2576228149 9.999091869 9.3159684732 9.9720287829 
9.9757565751 9.949211394 9.9452775454 9.1922875015 9.2368589143 9.2245339351 9.9960568599 9.6980267603 9.9738241051 
9.8097185029 9.9805410769 9.9610993845 9.8688582865 9.9814222275 9.9282951747 9.8096401653 9.9677625098 9.9881916458 
9.9712850142 9.9774861437 9.974949593 9.7089017612 9.9899770754 9.9982962627 9.9794797304 9.8058990506 9.9945936208 
9.9656205804 9.9877988942 9.7074429475 9.8761289282 9.8751568091 9.9303201843 9.9223315051 9.2119842085 9.9308207418 
9.9501292515 9.7747179212 9.870458698 9.9170708008 9.780174594 9.9663704481 9.8959834574 9.7301220331 9.9309373042 