# vtk DataFile Version 5.1
vtk output
ASCII
DATASET POLYDATA
POINTS 1244 float
0.174324 0.187247 0.196697 0.167101 0.153857 9.60727 0.186081 9.69402 0.178179 
0.146529 9.7753 9.74558 9.68229 0.188216 0.205682 9.71881 0.158672 9.70326 
9.75241 9.78021 0.0948467 9.7095 9.73903 9.67611 0.00363006 0.0106343 1.05972 
-0.0399814 -0.0143442 2.03421 0.00302025 0.00045758 2.9872 0.031312 0.0039919 4.00562 
0.0441434 0.00327197 5.00015 -0.000493932 -0.0219013 5.98924 -0.0137765 -0.0112366 7.01708 
-0.0320045 -0.0496907 7.97153 -0.0081068 -0.0360571 8.9355 -0.0458148 1.00183 0.0128884 
-0.0766196 2.07713 -0.0584139 0.0387413 2.98516 0.0423359 0.0114896 3.91758 -0.00134482 
-0.00357829 4.99717 0.0166537 -0.0271717 6.08283 -0.0177201 0.0439902 6.99804 -0.056912 
-0.0306141 7.90715 -0.0961443 0.0238559 8.99455 0.00309427 5.4397e-05 9.74663 1.10422 
-0.0378659 9.76698 2.0648 0.0292848 9.69654 3.02035 -0.0151761 9.73564 4.00583 
-0.0583114 9.70583 4.99081 -0.0201973 9.75223 5.9929 -0.000550699 9.77209 6.97643 
-0.0691976 9.77906 7.92342 -0.0325103 9.75802 8.94592 -0.0446605 1.01189 9.74463 
-0.102421 2.08736 9.7124 -0.054761 2.99488 9.652 -0.0439351 3.89997 9.71704 
-0.0443364 5.0021 9.72171 -0.0746984 6.10792 9.75108 -0.0546742 7.00373 9.71974 
-0.0692567 7.8881 9.75878 0.00118107 8.99814 9.76358 9.766 -0.0210947 1.08429 
9.78434 -0.0485288 2.07378 9.73873 -0.0196955 2.9922 9.70377 -0.0178682 4.03062 
9.72832 -0.0419031 4.98586 9.74874 -0.0261338 6.01135 9.70394 0.0140962 6.96211 
9.78383 -0.0569509 7.94291 9.75522 -0.0484233 8.95973 9.78211 1.0034 -0.0137002 
9.72363 2.08549 -0.0859921 9.70229 2.99715 -0.0223401 9.71333 3.89387 -0.0742233 
9.7034 4.9994 -0.0670243 9.73808 6.10791 -0.0846191 9.68078 6.99604 -0.0137964 
9.77826 7.89939 -0.117554 9.76608 8.98872 -0.021966 9.75897 9.70866 1.06341 
9.79547 9.75539 2.08526 9.78948 9.75154 3.00746 9.71758 9.70417 3.98126 
9.79298 9.74586 4.9995 9.78974 9.75738 6.0425 9.75089 9.75865 6.89656 
9.80787 9.77947 7.94435 9.80546 9.77183 8.93475 9.77463 0.985158 9.78631 
9.74087 2.14296 9.74927 9.69583 2.99704 9.65866 9.73724 3.82898 9.78151 
9.70502 5.00786 9.73638 9.78206 6.14681 9.72363 9.76407 7.00172 9.6751 
9.75373 7.86375 9.72542 9.75861 8.99457 9.74758 1.02973 -0.0158691 0.0591048 
2.05677 -0.0724146 0.031368 3.00092 -0.0199671 0.0157344 3.95476 -0.0506327 0.0110438 
5.00845 0.00825804 -0.00651006 6.03117 -0.0218503 0.0178792 7.00794 -0.00773055 0.0116322 
7.94212 -0.0410611 0.0246641 8.98088 0.00254082 0.0123229 1.04437 -0.0670382 9.66166 
2.08182 -0.150516 9.66548 3.00705 0.0149517 9.70518 3.92701 -0.060868 9.68438 
4.99598 -0.072676 9.67832 6.09145 -0.0954172 9.70794 6.99655 0.0376039 9.75932 
7.93057 -0.175332 9.67364 8.97122 -0.0852643 9.71653 1.03953 9.78932 0.0272074 
2.09546 9.79422 0.012568 3.01141 9.73712 -0.0273694 3.93667 9.7475 0.043 
5.00201 9.7088 0.0560074 6.04402 9.71561 0.0258064 6.97259 9.6902 -0.0197809 
7.93359 9.79072 -0.00697573 9.00006 9.82893 0.0253587 1.03723 9.81008 9.78849 
2.15281 9.76975 9.72185 3.02855 9.76771 9.78455 3.88168 9.78152 9.71156 
5.00058 9.8044 9.7123 6.10964 9.73423 9.70571 6.99588 9.6448 9.68223 
7.84855 9.78427 9.73853 8.98503 9.82206 9.73783 -0.205419 0.369876 4.99644 
-0.212511 0.322465 1.88422 -0.246732 5.64969 1.91809 -0.357119 8.33986 3.46773 
-0.178868 8.36208 0.350675 -0.294871 5.65177 8.08985 -0.258375 8.35514 9.58977 
-0.319538 8.3339 6.5275 -0.178753 0.331156 8.10209 -0.160904 2.98123 9.5078 
-0.214122 2.97224 0.319662 -0.481571 5.65015 4.99857 -0.298566 2.98248 3.4608 
-0.303676 2.98674 6.5325 0.0423817 0.316923 9.58751 -0.190925 0.26912 6.53859 
-0.177721 0.287585 3.45754 -0.0144287 0.291822 0.39615 -0.264449 4.31686 8.87466 
-0.127147 5.6329 9.54567 -0.312351 6.98639 8.89834 -0.378947 6.99048 7.31498 
-0.412844 8.32943 8.0949 -0.148858 9.48836 8.89509 -0.202912 9.59944 7.31413 
-0.164248 9.57443 5.79774 -0.230982 4.31543 1.11897 -0.168196 5.62924 0.338301 
-0.337036 6.99232 2.685 -0.293847 6.98516 1.09752 -0.310096 8.32623 1.90517 
-0.207116 9.55505 4.20951 -0.24132 9.63531 2.68081 -0.149107 9.49639 1.10076 
-0.388472 8.33777 4.99842 -0.3485 6.98765 4.22907 -0.331452 5.6488 3.45532 
-0.310779 6.99105 5.76606 -0.334301 5.64837 6.53646 -0.332816 4.31401 2.68059 
-0.274219 2.97724 1.91418 -0.361605 1.63493 1.10674 -0.401158 1.62351 2.67141 
-0.316967 1.6339 4.22527 -0.352068 4.31304 7.31096 -0.332005 2.97915 8.08599 
-0.31745 1.63576 5.76913 -0.395784 1.62667 7.31607 -0.317928 1.6399 8.88592 
-0.401025 2.97262 4.99877 -0.448675 4.31304 5.76518 -0.421041 4.31162 4.23049 
-0.141646 0.373962 8.88575 -0.252048 0.247254 7.29412 -0.171134 0.278793 5.78521 
-0.162697 0.281501 4.21158 -0.240653 0.245144 2.69095 -0.176536 0.367013 1.11775 
-0.205027 3.67632 9.23784 -0.195865 4.3391 9.55765 -0.178471 4.98683 9.22569 
-0.324665 4.97928 8.49868 -0.24508 5.65017 8.8838 -0.351821 6.32118 8.49292 
-0.286105 6.31632 7.70009 -0.347918 6.98183 8.08776 -0.290224 7.68467 9.24847 
-0.402725 7.6616 8.50159 -0.371364 8.3284 8.87715 -0.394083 7.64925 7.70261 
-0.352213 7.65243 6.92656 -0.437186 8.34462 7.3162 -0.193687 8.98377 9.23398 
-0.019855 9.53059 9.49842 -0.344415 8.99801 6.92852 -0.321835 9.02258 6.17235 
-0.216263 9.60326 6.55898 -0.238174 9.55259 8.09526 -0.371199 9.01449 7.7 
-0.332338 9.01145 8.4834 -0.211739 6.98619 9.60465 -0.236679 6.28047 9.24275 
-0.159729 3.67169 0.767442 -0.148129 4.33043 0.346388 -0.298934 4.98074 1.49799 
-0.133456 4.98655 0.777807 -0.218812 5.64875 1.12234 -0.245263 6.31496 2.29399 
-0.313391 6.31997 1.5023 -0.286138 6.98508 1.91875 -0.320747 7.64361 3.06855 
-0.35428 7.64836 2.29249 -0.400234 8.34347 2.6784 -0.371274 7.66408 1.49669 
-0.227944 7.67954 0.756473 -0.340737 8.33328 1.11532 -0.352091 9.03193 3.82697 
-0.30473 8.98799 3.0591 -0.231172 9.62212 3.45104 -0.160621 8.98675 0.741064 
0.0327448 9.64718 0.407436 -0.193665 9.55257 1.88762 -0.343231 9.02522 1.51436 
-0.359283 9.02045 2.30102 -0.202915 6.99184 0.304716 -0.165053 6.28868 0.767157 
-0.195614 9.50881 4.99766 -0.287465 8.99247 4.62247 -0.343617 8.3193 4.23158 
-0.29269 8.99962 5.37156 -0.34994 8.33009 5.76936 -0.395969 7.66773 3.83034 
-0.305734 6.97993 3.46015 -0.3022 6.32138 3.06789 -0.347422 5.64968 2.68053 
-0.414659 6.31895 3.83821 -0.395378 6.3139 4.61693 -0.423953 5.64956 4.23102 
-0.396832 7.6603 6.16376 -0.291863 6.97839 6.53958 -0.388588 6.31343 5.37843 
-0.409793 6.31944 6.15678 -0.422038 5.64969 5.76749 -0.286657 6.32124 6.92926 
-0.342345 5.64923 7.3134 -0.428613 6.98648 4.99934 -0.335828 7.65255 5.37625 
-0.337344 7.65144 4.61944 -0.239567 4.98143 2.29305 -0.230393 4.31336 1.92005 
-0.348353 3.64453 1.495 -0.309182 2.98472 1.10063 -0.265523 3.64755 2.29645 
-0.297746 3.64315 3.06869 -0.359679 2.97086 2.68156 -0.243541 2.29173 0.754125 
-0.21068 1.6189 0.366807 -0.238632 0.95125 0.732312 -0.323965 0.954643 1.51047 
-0.299546 2.31019 3.06727 -0.359064 2.30116 3.8335 -0.328386 1.6324 3.47094 
-0.353282 0.940663 2.30862 -0.304848 0.962059 3.05791 -0.306729 0.933172 3.82686 
-0.253294 0.969615 4.63034 -0.342004 1.62986 1.90781 -0.355504 2.32192 2.29839 
-0.390698 2.29328 1.49545 -0.276801 4.98049 7.69936 -0.311326 4.31221 8.08681 
-0.300941 3.64256 6.93109 -0.306658 3.6493 7.70176 -0.356105 2.96672 7.31441 
-0.334445 3.64085 8.50228 -0.301269 2.97918 8.90529 -0.3653 2.30366 6.16613 
-0.308602 2.31102 6.92903 -0.316483 1.63409 6.52598 -0.2408 0.96519 5.36992 
-0.341173 0.928332 6.16584 -0.331112 0.96328 6.93284 -0.354301 0.943178 7.69223 
-0.269121 2.27859 9.22712 -0.214295 1.61458 9.56727 -0.321613 0.934047 8.4938 
-0.179403 0.977224 9.24493 -0.343024 1.62772 8.09295 -0.39056 2.29862 8.49604 
-0.326652 2.31138 7.70385 -0.348031 1.62732 4.99632 -0.299869 2.30732 5.37726 
-0.329477 2.97387 5.76914 -0.301513 2.30781 4.62049 -0.314237 2.9751 4.22627 
-0.431711 3.64455 6.15704 -0.354519 4.31417 6.53587 -0.288869 4.98163 6.92895 
-0.463401 4.98119 6.16103 -0.450579 4.98194 5.37901 -0.402371 3.64513 3.83997 
-0.328755 4.31432 3.45581 -0.452486 4.98181 4.61576 -0.488279 4.98277 3.82984 
-0.296405 4.98016 3.07023 -0.507994 4.31508 4.99792 -0.393555 3.64644 4.61769 
-0.420059 3.64527 5.37903 9.7199 0.370774 4.99532 9.87882 0.333659 1.8616 
9.71074 5.64709 1.89896 9.80609 8.3264 3.4745 9.80936 8.35944 0.377266 
9.7384 5.64902 8.09045 9.82844 8.35233 9.59435 9.79862 8.32075 6.53851 
9.84451 0.328217 8.1193 9.83819 2.97192 9.45088 9.80964 2.97954 0.352139 
9.39699 5.6434 4.99632 9.66225 3.00738 3.44258 9.65711 2.99231 6.5321 
9.8429 0.33279 9.50896 9.8669 0.299745 6.54127 9.82514 0.248714 3.43919 
9.81729 0.337044 0.410487 9.8281 4.32251 8.85415 9.7942 5.6269 9.58163 
9.85697 6.98557 8.85201 9.65839 6.99198 7.31213 9.78583 8.33533 8.08156 
9.88025 9.45301 8.89297 9.88989 9.59381 7.35691 9.82411 9.57051 5.7467 
9.83697 4.30923 1.13199 9.83985 5.63153 0.350665 9.63753 6.9909 2.68098 
9.83503 6.98036 1.1345 9.82186 8.32903 1.91704 9.81973 9.56602 4.24373 
9.83392 9.55668 2.67451 9.93914 9.45322 1.10094 9.74342 8.32626 5.00387 
9.58481 6.98496 4.22501 9.59085 5.64329 3.44696 9.5802 7.00529 5.76311 
9.60226 5.63905 6.54776 9.68161 4.31201 2.67672 9.72957 2.97392 1.90386 
9.90283 1.64633 1.12544 9.8068 1.6571 2.68217 9.75066 1.64629 4.22718 
9.66151 4.31755 7.31816 9.71945 2.96092 8.07968 9.78142 1.642 5.77083 
9.76182 1.65246 7.31875 9.89089 1.64202 8.86761 9.5293 2.97561 4.99626 
9.45876 4.30548 5.7576 9.47416 4.30841 4.23732 9.92239 0.40417 8.88658 
9.82052 0.317528 7.33141 9.77328 0.348091 5.74938 9.79176 0.335658 4.2401 
9.85116 0.31539 2.66687 9.91222 0.404726 1.09349 9.79886 3.68454 9.25376 
9.76867 4.33534 9.59603 9.76945 4.98669 9.28341 9.78881 4.97953 8.46936 
9.80333 5.64978 8.8554 9.8136 6.30746 8.45794 9.75457 6.31524 7.70441 
9.726 6.99184 8.09287 9.79339 7.68743 9.25775 9.83158 7.65976 8.46455 
9.86561 8.30794 8.86322 9.78825 7.63791 7.70261 9.65567 7.66553 6.89474 
9.77486 8.30528 7.31597 9.83167 8.9863 9.26451 9.81494 9.60074 9.52398 
9.82074 8.98779 6.91597 9.83738 9.00504 6.17597 9.90769 9.57813 6.56425 
[...]
CELL_DATA 2484
SCALARS scalars double
LOOKUP_TABLE default
-3.6782719833 -5.4129470096 -3.0233156483 -2.7739566537 -3.9338120477 -6.2734098778 -5.405652108 -5.0822402132 -5.1920341775 
-6.5323628222 -5.6250767159 -5.7869146018 -5.6148267586 -6.4016338873 -6.7794195104 -4.7337546756 -4.2530158692 -6.890671068 
-3.3132032123 -4.4133862983 -4.8138276238 -5.77971451 -5.6269174771 0.13697646386 -0.3310608761 -0.34980544577 0.54166916198 
-1.7354942804 0.22637991295 -0.085586645911 0.8208904804 0.031479856372 0.76438789714 -0.031695524768 -0.53315749974 1.5550647442 
-0.35154039469 0.3265578656 -1.1466799373 -0.44560432696 -0.43982024 -0.33412394643 0.17127042879 -0.38011520742 0.087371606053 
-0.45036973634 -0.38638294145 -0.91653270745 -0.21530291273 -0.4621197074 -1.0698392601 -0.74533049422 2.770788388 2.1278083646 
0.35654292737 1.3209209959 4.1311640006 3.6310212407 1.7597983244 -0.19042355302 2.1781714291 2.2644984843 1.9362638733 
7.1147564164 6.7653922466 7.9100179812 7.7299029632 6.172540029 2.5244901531 3.7151888171 5.9784985606 0.52391839612 
0.79412067846 1.1893281009 2.0960221022 0.87310768344 1.8334792194 1.6204054119 0.89118571245 2.5821085247 2.5924940651 
2.0543298562 -1.8903944864 -0.39304445531 -0.45356735109 -0.32762628858 -1.2154128597 -0.85228069363 -0.70926238128 -0.34521352781 
-0.22798071022 -1.0442371509 -0.37302010719 0.41385878733 0.83468023678 -0.53112834049 -0.51210515646 -0.058620101904 -1.4956832888 
0.27892433542 0.99584830348 -0.9592834861 -0.090734972615 -0.32652782441 1.3035562845 -1.6746426648 0.90824806011 1.7760626074 
-0.46033261203 -0.97007486484 0.35072144376 -0.12807412707 -0.0043283249228 -0.82930124134 -0.013999777943 -0.89355303764 -0.0019265205963 
0.67876633569 -0.53894711361 -0.64151711368 0.78006031589 -1.1870618292 -0.65372328065 -1.1275857795 0.40367607998 2.3170545492 
1.0611225275 1.5738613943 7.2387335678 9.6950822058 9.3357308982 7.7046342416 1.7309635919 1.76009515 3.108340838 
1.6036782187 5.1103389217 5.0990081744 8.6390088471 6.1088912941 6.4332018747 1.871077096 9.3993598095 1.5274175805 
-0.25816296271 1.3148434076 1.4172502764 -0.044090034748 1.1466464396 1.0222755776 -0.58898979745 2.3690106143 3.2174829676 
2.8447567897 0.38456167834 0.9593369772 -0.91704592513 -1.4166610494 -0.88962016699 0.47364230981 -1.2017596517 -0.26798830037 
1.3896671959 -1.2807217244 0.40081228644 0.81363510236 -0.75504488122 5.7134405681 2.0479556352 6.2922930825 5.7222213163 
-0.018837179985 1.1799109347 0.35084104963 2.4766583962 1.1497002216 0.17281961243 0.62643426141 1.4780746053 2.0262670388 
1.5837382934 1.8117928661 0.044330706184 0.012180223872 -1.0113727049 -0.78790758822 -0.92816675789 0.75946833992 0.55304553816 
1.0931549562 0.83822405999 -0.55580494809 0.86093932497 0.28501932785 -0.40217284294 1.3087239647 -0.29106596217 0.80327604556 
0.82276122656 -1.4029935316 -0.25117142632 -1.2129074116 1.2983088455 0.95092071036 -0.47624792058 0.3423782921 -1.3651764179 
0.76670996359 0.48807794489 0.83291657659 -0.21994232796 -0.73188165347 1.6102056626 0.85096713649 1.3381247573 0.26682578211 
0.09660133994 -0.54382385425 -0.82508626139 0.92871394477 -0.49419350255 0.24175841635 -0.2648147839 -0.42654232055 0.68157819783 
0.34046778447 -0.75446135309 0.7725341081 0.51835591824 1.3698088716 0.3105884706 -1.0187159022 0.60824748645 -0.55210210746 
0.29297743118 1.542309352 -0.84215049581 0.90219052594 -0.76375860319 0.75443647784 0.47172285129 1.149063053 -0.45772453628 
-0.23143347487 1.7296444867 1.0970404525 1.6630552037 0.67866037659 -0.73773598968 0.79579634289 -1.1854864124 -2.2739082772 
-2.0640046637 -1.743613087 -0.67454271126 -0.49942596689 0.46418541433 -1.8568382913 -1.0455810183 0.95297839082 -0.54053045034 
-0.037269503286 -1.0523381575 -1.8752668589 -1.3365101546 -1.2321390811 -0.53604134882 -2.0572730832 -1.0510254935 -1.7384103178 
-1.9068347934 -0.232340417 -0.91056811334 -0.32827774398 -1.9604810139 -0.28729040824 -0.40915019944 -0.050457239832 1.0423513841 
-0.44656651827 0.58572922088 -0.48779520756 0.71520824788 1.4160286633 -0.33863746448 0.044522762456 1.450114075 -0.58302788576 
0.24022216489 -0.45060893521 0.078922837494 0.81771353626 -0.56746404522 0.16928178696 -0.72218637814 0.44096058883 0.55111754225 
0.76803578254 0.067025956985 -0.27260641832 0.26252144555 0.54501321955 0.18017199127 0.70696595562 -0.37441477627 0.13030847905 
0.50413160002 -0.72118104042 0.70479667835 -0.32687482711 -0.3784166359 -0.80535349532 -2.3745358009 -1.7837779968 -0.7836086105 
-1.5116675522 -2.0556820227 -1.2643439781 -2.1011155528 -0.39064910681 0.34273686459 0.28949862613 0.81331101682 -0.046896749108 
-0.21116773275 1.083980601 -1.0082176672 -2.6697716917 -1.9858645089 -1.7525414368 -1.7909631938 -1.2682647787 -2.5283956659 
-2.5022945412 -1.8719320618 -0.12459558748 -0.23239035305 -0.0734249531 -0.11979278623 0.5934361657 1.079342598 0.30372333772 
1.1342004693 -0.26110344487 -0.32455751548 -0.58653733943 0.37653063876 0.62286635093 -0.90286686788 -0.22092919896 -0.69590142229 
-1.3733499962 -1.200700999 -1.5115596844 -0.22197405383 0.72513589205 -0.98214725127 0.043171517188 -0.19997774416 -0.84759980717 
0.77757915993 0.239448843 -1.4917676859 0.46240496595 0.48862146581 0.69415452952 -0.96530943896 -0.77744650557 0.45811071213 
0.19394225224 1.0299992337 -0.62366615548 -0.73979237726 -0.88685334993 -0.12316882355 1.2729412272 -0.022945422829 0.52174671725 
0.63867153338 -0.93394770727 0.95967518814 -0.34600058135 -0.78192089282 0.41375692667 -0.4917334037 0.31778642046 -0.72779394674 
-0.0052048974171 1.6484578286 0.68785247152 0.96630610359 -0.64099505274 -0.83798714406 -1.1773895199 0.90033724808 0.51537841767 
-1.6801581599 -0.94114621455 -0.44909443026 0.18142188517 0.41691671833 0.84375904085 -0.34666272309 -1.4263358323 -0.52147126395 
-1.2390953996 -0.34150606649 -0.80267140743 -1.710000138 -1.4221539893 -0.08604574556 -0.86838174684 -1.0572358069 -1.4943335758 
-1.6856900667 -4.4236609272 -3.5432580117 -3.3367256702 -1.429582174 -4.2339332986 -4.2581403982 -1.5193266724 -0.78421158821 
-2.5222549086 0.18155700848 -2.799484478 -3.5429054218 -3.1380622288 -2.6813704536 -2.5294175171 -3.2125790191 -4.9451902938 
-2.2078880664 -3.2496271885 -2.2503066805 -2.2425722921 0.21948891437 -0.5371876691 -1.2470881023 0.04272208919 0.80711387979 
-0.17418817001 0.73136431861 -0.4382374477 0.2713619899 -0.35511751303 0.36805885706 0.3641102241 -1.0550550826 0.64838874808 
-0.69702871283 0.35576170965 0.9121761281 0.86111291778 0.63854290413 -0.80556902645 0.10015836896 -0.83507776486 -0.97923552631 
0.11494407596 -1.9959538329 -0.752804595 0.3483780588 -1.4651903757 -0.60769020137 -1.272545766 0.71960287452 -0.18185722028 
-0.12821265151 -0.36471138227 5.0445690666 2.2204821176 1.0472853357 -0.45231793515 -1.3116958254 -0.53407943788 -1.3452115875 
5.4707008041 3.2950077548 6.180936645 6.514044698 1.6699496228 -0.45825145979 2.3018204198 2.1225884148 -0.49807067112 
-1.6660696839 -1.2037868491 -0.47523384818 -0.95048179013 0.20676420357 0.082892859999 -1.5934732263 0.49984469648 0.39449142324 
0.77740783058 -1.1644609068 0.69526995588 -0.12168625223 -0.79323668495 -0.66481899164 0.11194373739 0.01432411637 -0.60894612761 
0.166372327 -0.60701827899 -0.73733474558 0.41608917412 0.76635130389 -0.27832270127 -0.75552777196 0.10442366991 -1.4187335666 
0.70046438853 1.1383669876 -1.63131889 -0.74474429473 -0.34337546584 1.7687886915 -1.8696036901 1.5804690385 0.72434590123 
-0.76784031398 0.62097762111 0.45159417882 0.69486852649 -0.97673854687 -2.0573270053 -0.44847286158 -0.79199037251 0.53533352732 
-0.74918222469 -0.69341652991 -1.262402642 -0.62311077747 -0.40492372069 -1.2684802936 -1.0206059585 -0.11284017078 -0.76798412183 
-0.30273753913 -0.8158685415 4.8388532683 3.0909067695 6.464668029 6.7914767174 0.57469527588 -0.14959363515 0.1671391686 
1.4053045772 5.7813473357 5.4709358484 0.034314313668 3.2493907848 2.5483975213 -1.7890726176 2.1057445685 -0.35722558241 
0.16748421732 0.39583081293 0.43510318688 -1.4156869645 -0.75534247573 -1.4840662685 -0.60840756568 0.76508794534 -1.0053051823 
0.052073060672 0.90269910202 1.1754500598 -1.4592504361 -1.7578506109 -0.89313555453 1.3975129555 -0.44392410679 0.97898988514 
1.6544760604 -1.6141709586 0.92626479869 0.18127204543 -0.34446956046 1.3649805497 0.13102740869 1.7923100577 1.3654741274 
-0.12143415084 -1.4122061899 -0.74048312014 0.22103084406 -1.1598138767 -0.71600354459 -0.88957873899 -1.520624059 0.15679697985 
0.50451392014 0.26467500283 -2.6268274395 -0.19415579655 0.026345588412 0.020460727214 0.1353466387 -0.48191266468 0.76338084464 
0.26101773411 -1.1872158286 0.88508392549 -1.2933262075 -0.28349211713 0.91081024428 -1.8454549225 -0.87317949024 -1.504249715 
-2.2508573726 -0.13007336555 0.063124482888 0.24300402494 -1.0125827814 -1.2627542473 0.42641017314 -0.71031656248 0.26978935327 
0.20728111619 -1.0899167322 -0.7994974498 0.71508284641 -0.95405990391 -1.6943635868 -1.6555516555 -1.8094681017 -0.79401134983 
-0.63010362621 -0.54059436089 -1.4436219386 -2.2339299727 -0.69607078953 -1.5105301995 -0.99956225228 -0.9049822167 -2.6968539377 
-1.8270092935 -0.56579155362 -1.8719924966 -2.1532433274 -2.1829683342 1.397845493 -1.1000700392 -0.8709175152 -1.2981667336 
-0.30274720373 0.61797817207 -0.9392612054 0.46576385257 -0.07847475421 -0.67559677277 1.2041957618 0.18583674747 -1.0876739848 
0.823763849 1.1255424177 1.2770915716 0.41593865192 0.93781728604 -0.46012166554 1.3594691625 -0.22215776991 0.059009014903 
-0.43446279588 0.48541569892 -0.30102368235 0.35943479305 -0.1004568337 -0.12650949643 -0.54404638986 1.8287712939 1.7505407593 
1.7295847416 0.57642671662 -0.43118375164 0.52485392787 0.03235905391 0.76686054533 0.34451107649 -1.0708828707 -0.19096882978 
0.4364868298 0.3474612663 0.17793549559 0.3056979723 -0.45070442898 1.4137446409 1.1551187333 1.8007009254 1.1479468677 
-0.090354374515 1.2341029384 0.64217445133 0.84342423609 1.405276208 -0.18197195164 -0.022309061984 1.5940163918 -0.59276961506 
0.075524672588 -0.76379979982 0.44732731242 -0.57611209899 0.036256273845 -0.19709431701 0.30576595815 0.9662524723 -1.1442067732 
-0.38900918968 -0.29811854458 -0.41777481189 0.66156330825 0.77858501586 -1.0494620991 0.39146280675 0.90081290352 0.57738904839 
-0.084629246105 2.6045690002 1.5270589584 2.3665412339 0.45780349596 -1.321433053 0.38925153521 -0.65399877673 1.4618843693 
0.32351611818 -1.114132571 -0.6989399909 0.83685339977 0.51580220948 0.0085596727274 -0.041914975757 1.0233148481 0.32791450473 
0.38137803892 0.8618812597 -0.39307261379 0.24718513358 0.1725525706 1.0220942535 0.32236585569 0.15967505345 -0.58919395888 
-1.0613830252 -0.19492500837 0.13238407298 1.6006637022 0.92998820395 1.164348226 -0.18673774662 0.12325522049 -0.65266530693 
0.34373468346 1.4966081421 0.45361087102 1.2151232714 1.123026606 0.073642975804 0.85276677462 0.42884236927 -1.7172463216 
1.2165856521 1.3471105796 1.6842623734 1.9026585806 -0.13216138299 1.9095148342 0.9503208351 1.2261205133 2.1456270547 
0.32210481843 1.4529369418 2.3381529878 0.49652340801 0.83341785554 0.2843661598 1.6213671365 -0.53522669632 -0.37849640851 
-0.75281136825 0.030013935192 0.99952123716 -0.6227100016 0.5343717943 -0.053552398788 -0.99671954457 0.41076476751 -0.0084960065963 
-1.237366562 0.9850603889 0.94464273197 1.2864436771 1.6344443264 -0.57563499865 -0.93628311219 -1.1368730031 0.081611578455 
0.28317716289 -0.94775566365 -0.26949446523 0.16462464126 -0.6953404155 1.0404333833 0.07237588312 -0.92283817483 1.1417913697 
1.1891602536 1.5696337853 0.92140590902 -0.31575987616 -0.37751921331 -0.79363325277 0.84843231861 1.5319841703 0.082454161599 
0.62258469488 0.87636415755 0.50317740743 1.6894591694 1.0557252459 -0.064797202187 1.3914050122 1.592317316 1.913476824 
-8.1286997422 -6.6316971262 -8.3504421116 -8.4123905777 -7.8112718093 -3.0384518085 -4.9759596529 -7.286886463 -7.7502587873 
-3.2897795771 -7.4018735482 -5.9115336133 -5.4379141579 -5.1788834479 -5.3088199877 -7.5513501384 -8.1444816124 -5.937513936 
-7.632809383 -8.2200710423 -7.4515948139 -6.4474724511 -7.3977019568 -9.7251267256 -5.9540150468 -9.8205837673 -9.7736473853 
-9.6594546963 -9.8194167308 -9.9287088845 -9.9487649784 -9.8208058093 -9.8268338863 -8.6557959791 -9.4654620362 -9.5474514829 
-9.9882120205 -9.9360662626 -9.9794327915 -9.988703106 -9.7925610504 -9.6534918359 -9.9770750826 -9.7949117407 -9.9773985923 
-9.9729937486 -9.9099235196 -9.9225594212 -9.9837561314 -9.993417125 -9.8854572544 -9.981109127 -9.0761530966 -9.4363961501 
-9.2075344379 -8.9624618407 -7.4408395751 -9.2766294531 -5.6544808189 -9.9932948145 -9.8279927601 -9.7589011446 -9.8078657842 
-8.222814389 -9.1982253319 -8.7135405508 -8.2773974496 -8.6310551933 -9.893541648 -9.3869479574 -8.6687857546 -9.9331218395 
-9.9686143798 -9.9532576705 -9.7106953761 -9.9763820482 -9.6547544891 -9.8842865127 -9.9792232791 -9.7105771357 -9.899492022 
-9.9196445127 -9.8331966867 -9.7849471255 -5.0793970255 -9.7718717374 -9.9610426666 -9.8971254977 -9.7660264883 -6.944894085 
-9.2182735207 -9.6812141301 -9.8042027666 -5.0790438909 -9.7473145047 -8.2862287982 -9.9729286971 -8.8992101886 -9.4017498266 
-9.8639989183 -9.9835185844 -9.9202725686 -9.8581921249 -9.1334544593 -9.594905097 -9.603116111 -9.9570748945 -9.7096128213 
-9.8870434301 -9.9299036106 -9.9711864094 -9.9206340931 -9.9565057883 -9.9220686157 -9.974724458 -9.9218647098 -9.8699057761 
-9.9617083285 -9.9151892346 -9.8750568381 -9.9639022363 -9.923624101 -9.9847511353 -9.9417447463 -9.9812784994 -9.7242460798 
-9.9146591843 -9.8504925315 -8.9153306746 -8.0687766948 -8.2643922551 -8.7002098757 -9.5973776442 -8.1032400906 -9.3790487096 
-9.499721787 -9.2420092756 -9.1663584825 -7.9427730063 -8.9761455986 -8.9249912215 -9.6841786726 -8.0496143591 -9.8388024031 
-9.9831440959 -9.7999522863 -9.9020911293 -9.9762476723 -9.9209870496 -9.9209509454 -9.9837669288 -9.800486329 -9.6453608777 
-9.7498038871 -9.9232595479 -9.6210652656 -8.1771542707 -9.7734516052 -9.7590345679 -9.9382875861 -9.8673998667 -9.7657457515 
-9.6416217984 -9.874756499 -8.1822810058 -8.5494331923 -9.3713636809 -8.8715593568 -9.7298397143 -9.2689173498 -8.8715777763 
-9.9890451542 -9.9305522594 -9.9681250734 -9.7640366966 -9.9214743368 -9.9980931682 -9.9730664128 -9.9035836302 -9.8942659385 
-9.8816030861 -9.923268769 -9.92861802 -9.9548985265 -9.9567692305 -9.9228461352 -9.9237326052 -9.9582348016 -9.9848509302 
-9.9741702933 -9.9017013791 -9.9087556004 -9.9477712597 -9.9924402502 -9.8251840428 -9.8550719982 -9.956998962 -9.8080489657 
-9.9776455568 -9.9457012519 -9.9492102399 -9.9462728966 -9.9197137182 -9.9184911212 -9.9096708796 -9.9887796142 -9.9612247283 
-9.9503215189 -9.9684654979 -9.9446159377 -9.8347980975 -9.9425050333 -9.8063275737 -9.7709288779 -9.9211620073 -9.9328002525 
-9.9305069529 -9.9927087037 -9.976322236 -9.9786635848 -9.9735386337 -9.9708075388 -9.9603539365 -9.9844714894 -9.9501818805 
-9.9432111039 -9.978214742 -9.9141194993 -9.8822735999 -9.8803300506 -9.9602459698 -9.9667290297 -9.896465858 -9.9581503468 
-9.8290134174 -9.87468232 -9.9813711697 -9.8324547746 -9.9427550643 -9.9211772405 -9.9573945913 -9.9190426779 -9.9233434178 
-9.9212462111 -9.8824104085 -9.8988972021 -8.290670526 -9.965833009 -9.6117702191 -9.2828659532 -9.7557767936 -9.5873766072 
-9.6986306035 -9.742402728 -9.868102992 -8.3233554006 -9.9350227596 -9.6221338793 -9.38928785 -9.9664999691 -9.971578154 
-9.9732360944 -9.9133023387 -9.7226425982 -9.9302462937 -9.8474787489 -9.9774921117 -9.8018800263 -9.9184795305 -9.8080460865 
-9.8831580299 -9.9927550577 -9.9178496328 -9.9842265977 -9.7220050953 -9.9857843295 -9.9784726505 -9.9937433875 -9.9677052832 
-9.970002091 -9.9852058449 -9.9957724416 -9.8496189642 -9.9346976118 -9.8937968011 -9.8536139879 -9.9527505306 -9.9304081536 
-9.9757977761 -9.9775058162 -9.9756818942 -9.9340120983 -9.962866034 -9.9727513614 -9.9206669653 -9.927715785 -9.9114218882 
-9.9196453707 -9.7617818921 -9.9259382087 -9.8441755491 -9.7646702096 -9.9389647924 -9.943203699 -9.9266895487 -9.9510501621 
-9.919204413 -9.9460330717 -9.9616714006 -9.9399657303 -9.9800572879 -9.8995816349 -9.7740609417 -9.7571068441 -9.9276621563 
-9.9530507048 -9.8012976739 -9.927693222 -9.9127446658 -9.9276262015 -9.9947876039 -9.9855349902 -5.9878985037 -9.8424270369 
-9.0746467299 -9.7687759678 -9.8178690829 -9.8234338991 -9.6295287346 -9.8637830148 -9.6455375774 -9.7972775182 -9.7701123046 
-7.3628079956 -9.6536325338 -9.9668374471 -9.9809610166 -9.9694362285 -9.7914710697 -9.8281014552 -9.8093534906 -9.7579751745 
-9.9641738816 -9.930792534 -9.9360430506 -9.9577505955 -9.8701124503 -9.9865902175 -9.9182737551 -9.9489115709 -9.9698267496 
-9.8774699519 -9.8930613363 -9.8497776847 -9.9428979036 -9.9325995259 -9.9277063095 -9.9626396832 -9.9604260549 -9.9076432057 
-9.9353047299 -9.9621715332 -9.9015765132 -9.9555535714 -9.9510425153 -9.9546055162 -9.8228823863 -9.94519516 -9.9283243623 
-9.8616041328 -9.9392866584 -9.9633672278 -9.9779164589 -9.9603712804 -9.9719500044 -9.8362703119 -9.9489045236 -9.9608432671 
-9.7639972701 -9.8642579918 -9.9646236728 -9.7808303681 -9.8107522962 -9.8981779182 -9.9787888922 -9.8441766713 -9.9856665776 
-9.9610665819 -9.8710879481 -9.9822049719 -9.9084788972 -9.9625940295 -9.9163019008 -9.9188957156 -9.708575074 -9.9675465804 
-9.834322879 -9.6969800082 -9.9811315454 -9.9291942058 -9.9321712723 -9.9572545117 -9.9965832145 -9.8530796567 -9.9313210329 
-9.9220602967 -9.9993234502 -9.958004261 -9.8663249635 -9.9489599927 -9.9975075381 -9.9133395779 -9.8983068643 -9.8988603137 
9.6617704116 8.8513757248 9.5260263131 9.5319772968 9.5001032575 6.6645177406 7.2897398696 8.4568882384 8.7761525884 
7.2549575413 9.8319951154 4.5826252342 7.3972668006 9.0399064826 9.4796975146 9.5426474228 8.8049203443 9.8740936596 
9.9789260996 8.7755540608 9.649412252 5.1177992662 9.8976762356 9.9220181086 4.9466256805 9.8123704126 9.8711992969 
9.2780940883 9.9630592641 9.9619584945 9.8404012043 9.9608323227 9.8862955813 6.5125046985 9.9856518687 9.8652824278 
9.9560613525 9.8943524773 9.899081171 9.9591055686 9.8738701529 9.961572823 9.9020274559 9.8947714046 9.8196871128 
9.9495032445 9.8450687579 9.8730397982 9.9724673251 9.850028553 9.8538966026 9.9819480786 9.9961121227 9.9956330414 
9.9915466699 9.9983065736 9.9378542906 9.9197040035 9.9728542084 9.9770814702 9.9967388665 9.9698576518 9.9771430752 
9.7793805394 9.7936759059 9.5685549044 9.6861891008 9.7782129853 9.975468295 9.9052064054 9.8175460492 9.8891056852 
9.765326133 9.756395129 9.9965548006 9.9714940157 9.9614147962 9.9787127541 9.9056091067 9.9753943272 9.9859503991 
9.9418082304 9.9306119576 9.9445623889 9.9654623656 9.9793368107 9.860618341 9.9835757077 9.9671877838 9.6905477305 
9.884988257 9.9260843632 9.9435383363 9.964549581 9.9265317003 9.719621967 9.9706764691 9.4787043097 9.774159298 
9.9094883902 9.792159798 9.8976183475 9.884445046 9.4854019686 9.878154787 9.8404521899 9.9414055382 9.9654644154 
9.8369454208 9.9625478636 9.8193794921 9.8415320899 9.8134731533 9.7436442065 9.9987358063 9.777853338 9.985837285 
9.87165459 9.9188247953 9.9191605467 9.925123642 9.7755214931 9.882433567 9.8074023344 9.9937182916 9.9619516266 
9.9486629087 9.9674187962 9.8419496925 8.6126501029 9.099668486 9.7505913008 9.9304862273 9.1585043197 9.894287328 
9.9585851092 9.4875183901 9.4669304076 8.8002431581 9.7743896464 9.7273502295 9.9488315556 8.9018868224 9.9538338188 
9.8155778802 9.9345875421 9.918706443 9.8586577194 9.9962160271 9.8760673889 9.840482713 9.9598711995 9.9231290634 
9.9199672243 9.9943514749 9.980404919 9.6018573269 9.9419115831 9.9652511851 9.963019964 9.8095513883 9.9616835075 
9.8494735908 9.9615181432 9.6125208075 9.6285054619 9.8683634936 9.9111721638 9.994010137 9.8583472305 9.9161343989 
9.9768410613 9.9139199624 9.9646844304 9.9869571372 9.8657883611 9.9878175709 9.9551913024 9.8551090642 9.9372108274 