# vtk DataFile Version 5.1
vtk output
ASCII
DATASET POLYDATA
POINTS 356 float
0.105361 0.0846976 0.0306827 0.0193686 -0.010459 9.5961 0.0685674 9.52251 0.0318817 
0.10261 9.47914 9.30386 9.42648 0.109348 0.0426463 9.66088 0.0284284 9.63092 
9.59048 9.33899 -0.0581217 9.61174 9.29652 9.47276 -0.301632 -0.070168 1.17841 
-0.159185 -0.129953 2.72305 -0.131303 -0.00791277 4.22067 -0.235682 -0.109509 5.73364 
-0.372599 -0.223107 7.27238 -0.36383 -0.0663022 8.78376 -0.190885 1.3036 -0.123894 
-0.378769 2.69847 -0.496764 -0.38636 4.48458 -0.431088 -0.497625 5.55613 -0.413929 
-0.49641 7.30195 -0.429238 -0.070596 8.73995 -0.209262 -0.148717 9.66043 1.41212 
-0.162638 9.66926 2.86154 -0.00625199 9.4692 4.28252 -0.168496 9.4928 5.73016 
-0.173396 9.66066 7.13521 -0.109876 9.67779 8.54425 -0.413541 1.34788 9.64853 
-0.254823 2.58567 9.62041 -0.420997 4.45737 9.62684 -0.441527 5.55184 9.55141 
-0.552816 7.36251 9.71997 -0.13611 8.78541 9.67704 9.56177 -0.0995862 1.10088 
10.3125 0.505972 3.21486 10.4922 0.601791 4.10717 9.75573 0.405585 5.72105 
9.67521 0.0975712 7.03071 9.68483 -0.352118 8.85729 9.57598 1.20958 -0.185913 
9.78974 2.68564 -0.517389 9.66911 4.45429 -0.447095 9.53112 5.5228 -0.379581 
9.59453 7.42655 -0.350957 9.73052 8.54136 -0.331258 9.74673 9.32504 1.30694 
9.87895 9.44482 2.67979 9.70795 9.48016 4.20973 9.762 9.36226 5.80735 
9.79847 9.32606 7.21832 9.72752 9.38451 8.6583 9.84082 1.25189 9.59778 
9.27907 2.53208 9.6568 9.53323 4.38916 9.5186 9.51089 5.62412 9.69542 
9.72046 7.25951 9.4282 9.63654 8.63851 9.66646 1.35687 -0.0849395 -0.17763 
2.84453 -0.341922 -0.132725 4.48592 -0.345788 -0.047718 5.74886 -0.234907 -0.132416 
7.35769 -0.40995 -0.246017 8.60271 -0.0797652 -0.0519891 1.34866 -0.0361423 9.78862 
2.88731 -0.562212 9.8793 4.43879 -0.32927 9.79816 5.68691 -0.360615 9.77504 
7.46226 -0.319243 9.82705 8.5997 -0.227995 9.87096 1.10065 9.5866 -0.473477 
2.69741 9.63001 -0.338574 4.33804 9.56546 -0.284448 5.72963 9.48084 -0.0960522 
7.33 9.57845 -0.347361 8.93089 9.48754 -0.5386 1.21716 9.39964 9.65334 
2.61118 9.58448 9.50478 4.4415 9.6366 9.65854 5.72898 9.56328 9.51245 
7.26677 9.95274 9.58075 8.90928 9.44832 9.2492 -0.365197 0.37654 5.01508 
-0.698782 5.77886 1.77397 -0.961934 5.79567 8.16066 -0.411083 0.370231 8.13229 
-0.89663 0.286043 1.91505 -0.739304 3.12996 9.26233 -0.510915 8.47552 9.40429 
-0.416993 8.65958 6.6372 -0.535518 3.12157 0.351876 -0.554783 8.68919 3.34894 
-0.509695 8.54488 0.248461 -0.619561 5.80007 4.98827 -0.80563 2.94551 3.34549 
-0.682066 2.99134 6.65575 -0.260706 0.375092 9.45811 -0.537944 0.374292 6.52721 
-0.645443 0.32169 3.44316 -0.361338 0.321677 0.32872 -0.631666 4.51622 8.87351 
-0.748205 5.93492 9.36754 -0.702621 7.25506 8.52552 -0.912475 7.24111 7.33873 
-0.590132 8.63033 8.1572 -0.732719 4.48228 0.758595 -0.688566 5.93831 0.340132 
-0.782386 7.23375 2.56881 -0.754609 7.21821 0.893905 -0.433565 8.62606 1.74146 
-0.565188 8.56857 5.00277 -0.483929 7.20541 4.19522 -0.794931 5.78519 3.39608 
-0.774215 7.22842 5.79729 -0.582146 5.78908 6.62157 -0.64139 4.39958 2.54457 
-0.745256 2.96506 1.74348 -0.877354 1.4114 0.763709 -0.558472 1.38625 2.59752 
-0.526073 1.39209 4.19928 -0.84064 4.3696 7.42001 -0.773344 2.99506 8.27738 
-0.636908 1.34465 5.79176 -0.783204 1.33365 7.37872 -0.786837 1.51909 8.93687 
-0.465736 2.94621 4.9734 -0.681295 4.37307 5.79773 -0.471742 4.34963 4.20783 
9.73957 0.961994 5.11229 9.45688 5.83459 1.77662 9.58988 5.77584 8.18074 
9.68524 0.582017 8.11325 9.94199 0.626324 1.69549 10.0027 3.21966 9.33648 
9.81044 8.36263 9.17848 9.73366 8.53249 6.6377 9.71257 3.16639 0.498356 
9.88385 8.46696 3.37208 9.86301 8.54432 0.302456 9.45679 5.76567 4.9698 
9.34607 2.98355 3.37823 9.46635 2.92841 6.63929 9.65102 0.521693 9.28461 
9.83432 0.803161 6.61252 9.73725 1.0305 3.46011 9.85336 0.459327 0.351775 
9.61182 4.46762 8.92981 9.74318 5.91143 9.10312 9.73887 7.18757 8.6864 
9.66811 7.15126 7.40073 9.91214 8.3908 8.12895 9.66124 4.57525 0.89441 
9.88598 5.89481 0.552689 9.73611 7.14744 2.58431 9.77254 7.21155 0.952286 
9.79234 8.53831 1.76892 9.86786 8.56798 4.98718 9.43952 7.22465 4.21199 
9.5031 5.79551 3.39179 9.59145 7.17982 5.82991 9.38041 5.78338 6.62258 
9.47963 4.36861 2.51089 9.70653 2.99974 1.81269 9.73675 1.46826 0.94438 
9.6463 1.22402 2.52364 9.49626 1.16157 4.2012 9.60665 4.38731 7.42173 
9.50288 2.98192 8.23276 9.32205 1.31171 5.76097 9.62215 1.40783 7.36627 
9.75751 1.49376 8.7842 9.53286 2.97885 4.99016 9.32523 4.38239 5.81764 
9.27428 4.37511 4.17172 4.22153 -0.515065 1.69085 4.21157 -0.588658 8.21945 
9.37567 -0.150318 5.02528 8.99902 -0.585428 8.10949 9.48014 -0.615254 1.84091 
6.82869 -0.456986 9.57716 1.43797 -0.408107 9.60111 1.3828 -0.42892 6.64563 
6.86231 -0.489161 0.501261 1.35899 -0.627037 3.37576 1.42606 -0.462993 0.164664 
4.1855 -0.435732 4.97019 7.03506 -0.860766 3.37514 7.05359 -0.744271 6.6326 
9.16783 -0.323303 9.44954 9.20058 -2.19403 6.72911 8.11107 -3.79735 3.08996 
9.29432 -0.55582 0.283392 5.61096 -0.608068 9.23776 4.09237 -0.828722 9.33604 
2.80603 -0.481042 9.09113 2.77079 -0.631563 7.44714 1.33796 -0.674034 8.25448 
5.5471 -0.681186 0.688043 4.07713 -0.649654 0.376808 2.80001 -0.688232 2.56037 
2.77806 -0.785237 0.879168 1.34797 -0.397177 1.73464 1.33765 -0.520506 5.00791 
2.8231 -0.393662 4.23189 4.20114 -0.78366 3.34516 2.79707 -0.585711 5.79179 
4.19902 -0.66453 6.59842 5.62834 -0.581023 2.55023 7.03203 -0.786943 1.72827 
8.55469 -0.798416 0.821996 8.84423 -0.929176 2.50126 8.88719 -0.933473 4.39114 
5.61209 -0.569855 7.48004 7.00664 -0.777301 8.26439 8.77004 -0.904275 5.70631 
8.81915 -0.788654 7.42081 8.52281 -0.74093 9.24177 7.04782 -0.513111 4.98355 
5.63147 -0.635237 5.82173 5.63028 -0.509332 4.21491 4.23448 9.62835 1.73614 
4.19175 9.68916 8.1739 9.41941 9.4911 5.00918 9.31853 9.56343 8.15788 
9.26558 9.7849 1.87461 6.86274 9.4178 9.04291 1.48132 9.88779 9.25526 
1.40835 9.65383 6.58403 6.88873 9.84823 0.428022 1.39633 9.56164 3.36179 
1.38476 9.74959 0.29856 4.23157 9.59564 5.00582 7.03868 9.37025 3.3619 
7.00275 9.43463 6.59762 9.41393 9.71167 9.22533 9.29249 9.6916 6.51887 
9.41907 9.49163 3.44517 9.52197 9.66517 0.315697 5.4803 9.96708 8.85459 
3.87796 9.65827 9.1025 2.78455 9.93993 8.83919 2.82417 9.79075 7.46599 
1.35523 9.78806 8.16034 5.5457 9.50259 0.849227 4.02322 9.63992 0.554876 
2.83588 9.78535 2.54038 2.79018 9.68005 0.93878 1.36233 9.79786 1.81524 
1.33634 9.72491 4.99179 2.7777 9.5094 4.19911 4.19891 9.30482 3.37393 
2.77524 9.42649 5.8092 4.22318 9.39417 6.60866 5.63772 9.56601 2.55903 
7.02047 9.63556 1.77003 8.46076 9.78142 0.924151 8.53201 9.78406 2.59201 
8.65904 9.63737 4.19871 5.62853 9.67093 7.45379 7.022 9.70655 8.21929 
8.60321 9.61375 5.7908 8.64771 9.70555 7.38973 8.54997 9.89958 8.99811 
7.00944 9.66137 5.00024 5.59304 9.29823 5.7814 5.61062 9.33496 4.20444 
1.72379 4.23277 -0.636534 8.12753 4.21127 -0.902349 5.07561 9.05987 -0.370191 
8.23516 9.39794 -0.706302 1.91682 9.30981 -0.635303 9.14312 6.82122 -0.646298 
9.46335 1.46632 -0.452882 6.60004 1.34544 -0.36972 0.329823 6.89865 -0.519188 
3.41449 1.32561 -0.598595 0.224775 1.41762 -0.516226 4.9885 4.20503 -0.514927 
3.37133 7.04764 -0.772998 6.58523 7.07295 -0.684225 9.35256 9.13087 -0.497111 
6.58096 9.29011 -0.702659 3.31156 9.2003 -0.569812 0.395106 9.24972 -0.331583 
8.95463 5.51552 -0.725389 9.26971 3.97205 -0.708591 8.62797 2.75157 -0.725003 
7.32201 2.76941 -0.845469 8.12974 1.31218 -0.775709 0.823456 5.50945 -0.691717 
0.343291 4.04373 -0.500387 2.58519 2.75791 -0.610234 0.880584 2.75566 -0.856888 
1.75707 1.36956 -0.567944 4.97156 1.32226 -0.530821 4.19703 2.83699 -0.421208 
3.36617 4.19695 -0.729858 5.80635 2.78694 -0.80352 6.63845 4.19755 -0.61616 
2.55939 5.60636 -0.614143 1.73958 7.01901 -0.719745 0.901606 8.60776 -0.905258 
2.6337 8.6168 -0.707541 4.26111 8.5788 -0.716932 7.38873 5.64366 -0.567623 
8.23115 6.99474 -1.01862 5.82896 8.6903 -0.856335 7.32024 8.68488 -0.890754 
8.94026 8.52007 -0.770999 5.03077 7.01844 -0.455316 5.82803 5.60247 -0.787073 
4.18726 5.64751 -0.433022 1.75213 4.17405 9.50565 8.13877 4.23259 9.63435 
5.17704 8.90197 9.89931 8.22581 9.29646 9.79362 2.0493 9.16978 9.7345 
9.21159 6.76712 9.83039 9.24016 1.51569 9.87119 6.55119 1.34162 9.51102 
0.483395 6.77821 9.94864 3.36296 1.37686 9.76774 0.367045 1.38485 9.92215 
5.02451 4.22241 9.50124 3.359 7.00141 9.45096 6.60603 7.0205 9.47409 
9.2841 9.22291 10.0631 6.54337 9.40761 9.68307 3.41433 9.15065 9.67418 
0.477398 9.30285 9.67427 8.8898 5.47298 9.52197 9.13538 4.12565 9.8931 
8.57175 2.64937 9.72918 7.44182 2.77691 9.53147 8.15649 1.37286 9.9119 
0.924773 5.46353 9.49836 0.489425 4.05 9.69898 2.56376 2.81274 9.78607 
0.979296 2.78408 9.63946 1.81628 1.40855 9.88151 5.04548 1.36435 9.9004 
4.15699 2.77612 9.47909 3.36068 4.21721 9.29748 5.80863 2.80539 9.57988 
6.6132 4.21082 9.37737 2.56673 5.64997 9.6162 1.73138 7.02362 9.62684 
1.0018 8.47605 9.8189 2.61717 8.44841 9.81701 4.36521 8.33103 9.73475 
7.43258 5.62578 9.42457 8.19033 6.97718 9.79595 5.83684 8.32691 9.86242 
7.36289 8.56929 9.73657 8.85332 8.38942 9.77358 4.9737 7.0299 9.46839 
5.80311 5.6174 9.49887 4.20661 5.5949 9.34063 
POLYGONS 709 2124
OFFSETS vtktypeint64
0 3 6 9 12 15 18 21 24 
27 30 33 36 39 42 45 48 51 
54 57 60 63 66 69 72 75 78 
81 84 87 90 93 96 99 102 105 
108 111 114 117 120 123 126 129 132 
135 138 141 144 147 150 153 156 159 
162 165 168 171 174 177 180 183 186 
189 192 195 198 201 204 207 210 213 
216 219 222 225 228 231 234 237 240 
243 246 249 252 255 258 261 264 267 
270 273 276 279 282 285 288 291 294 
297 300 303 306 309 312 315 318 321 
324 327 330 333 336 339 342 345 348 
351 354 357 360 363 366 369 372 375 
378 381 384 387 390 393 396 399 402 
405 408 411 414 417 420 423 426 429 
432 435 438 441 444 447 450 453 456 
459 462 465 468 471 474 477 480 483 
486 489 492 495 498 501 504 507 510 
513 516 519 522 525 528 531 534 537 
540 543 546 549 552 555 558 561 564 
567 570 573 576 579 582 585 588 591 
594 597 600 603 606 609 612 615 618 
[...]
CELL_DATA 708
SCALARS scalars double
LOOKUP_TABLE default
-2.4791733542 -4.36360261 -2.5563334013 -3.9038245266 -2.6574879192 -3.7711262444 -0.85906772125 -2.3360533588 -7.8380193228 
-1.5055082834 -8.6483432792 -3.8748695228 -7.5477052903 1.2210726826 -1.4551512809 -2.7873114343 -0.59054460071 1.5141160419 
-1.1054706469 0.0049779839836 1.3073012512 1.0138318615 2.8212353373 1.258034331 4.9778562361 2.833265773 4.054036526 
5.1345081556 3.8189458289 2.2208302605 1.3439202073 0.7071876866 1.0697502552 0.025456346579 1.3328014612 0.29197161159 
-0.55476418217 -0.94783374762 -0.36051954315 -0.48586748393 1.9643563759 1.997476112 2.3274500941 4.3379190328 2.7539796312 
4.7018373565 2.6226635639 3.3392294364 0.90529827825 -0.46237048536 0.31361820887 -0.014716135309 3.132260229 3.1122400434 
3.497657877 2.5199631466 0.5643840989 5.4683527104 4.6161278272 -0.25082886744 1.5501481744 1.1196953168 2.8947798553 
-1.1988861535 -1.0223201026 -1.802301964 -0.056005302588 1.9836699731 -0.53489679988 0.4730999823 -0.13367876992 -0.94958765317 
0.92358808621 0.42643700205 -2.576856104 -2.4343714867 -4.2920060024 -1.6612919456 -1.3710156414 -2.6343643633 -2.7047041247 
0.97002637945 1.9120217405 -1.3816825686 1.6443279763 -0.24057694892 -1.6416072487 -0.83524147384 0.83790957669 0.37912563965 
0.20776995285 -2.5260449966 -2.613851273 -1.6952450469 -1.2639556767 -2.7296277324 -3.3432861556 -2.4241033773 -2.1949621249 
0.23148741852 0.36344586256 0.076907044217 -2.1387673265 0.40246302015 -0.63684355691 0.72065613574 -0.60117124232 0.41904486451 
0.56365526934 1.2540610681 1.6855255434 -1.5894622519 -0.74228606522 -1.6716943433 -0.30961281205 1.0666716598 -0.77145757759 
-0.74724515754 -0.41322292846 0.30993365753 -0.37914751785 -2.1455788127 3.9421633641 4.7400257285 -0.057589078767 8.7150606426 
7.65159895 5.9368562494 -2.8200830868 -0.74424509561 -6.6863244473 4.0071500363 -0.71268861432 -1.2299185503 0.14624966491 
3.4439328191 -0.65356254284 -0.0099640307732 -0.86259563872 -0.99424604141 -1.1801998915 -1.6481884122 1.1669105843 0.054817703593 
1.6080342925 1.5838238864 1.304916962 -0.0074746255721 -0.4790412494 -0.74078847081 0.11128516877 0.66224065928 0.30340161611 
-0.75888258839 0.35669354851 1.2843981888 -2.2827872116 -2.1584835953 -0.75514931903 -0.44377121071 -0.27969484026 0.82013028145 
0.86057984845 2.7902626464 0.01346701803 -0.36464297264 -1.4290560254 -0.18827115244 1.1983061966 -0.26024831467 2.3545286878 
-1.1503546398 0.48026889473 -0.61460289198 -2.1771423994 1.7185066114 1.5438822994 -1.886688028 0.27330078125 -0.60627292259 
-0.74868427942 -1.2305376582 -1.3113969284 -1.7758107647 -0.37278370888 -1.4958014387 -3.1898760558 -2.5089844814 0.75915009814 
0.33914736022 0.46780234926 1.0051275185 -1.6493642179 -2.359474713 -1.4125063344 1.234341898 2.2025797844 7.1890026458 
8.6788249199 7.3745667423 3.21903817 0.56917643826 0.15974460069 -0.11694263114 0.14369112333 -0.85080208248 1.3789112134 
-0.73351681245 0.12500899781 4.256552237 0.48337660087 5.2426895127 -3.1771608633 -0.33149750655 -0.093981112234 -1.4764002963 
-1.859008605 0.027696988693 0.89660530124 1.309048285 7.6852344054 -1.086273671 0.29916654615 -0.70945146179 -0.020457943165 
0.84279798775 -0.66128200634 0.60482721506 -0.18814022963 -1.4490398428 0.012005592467 -0.91902910609 -1.1299250825 1.1590623668 
1.2094522876 1.6427374377 -9.4794329841 -8.070301317 -2.2391955912 -2.0432786027 -6.0101480702 -7.1952860377 -8.3421940073 
-4.6337559261 -4.4857330378 -7.4986672456 -4.1964476826 -8.2080244625 -3.6717350105 -2.5131711984 -7.7678845114 -9.7227037226 
-7.2523255539 -8.829595211 -9.0806801611 -7.2402405489 -9.0738391095 -9.9560862909 -9.8114227137 -9.8678683891 -9.9282160352 
-9.7369390187 -9.4647496341 -9.4512352347 -9.4011110392 -4.8023606822 -9.5016691692 -9.9179626548 -9.6617184136 -4.7172514727 
-9.7599110563 -9.7055590758 -9.9333775783 -8.8312740265 -8.8223165653 -8.4945045804 -9.8657858452 -9.8337691853 -9.6887237341 
-9.7178154839 -9.360524985 -9.7840991757 -6.7709035169 -9.0390499618 -9.8201034965 -9.5741801662 -9.157916891 -9.8691834989 
-9.1277564443 -8.2510537921 -6.7764308642 -9.7223554279 -9.8553468385 -9.834179616 -9.3291313058 -9.5397170348 -9.8687094572 
-9.6827668732 -9.7122019814 -9.9137313349 -9.899457366 -9.9889712204 -9.9880400915 -9.9196118077 -9.9547238549 -9.9066109654 
-9.9232798548 -9.9503612994 -9.6294746394 -9.844560516 -9.9206388177 -7.4671406484 -6.8959169091 -9.9925916455 -7.4923405797 
-3.0822099476 -6.6495607753 2.5193710118 -9.3589450775 -9.9724671764 -9.6693228168 -9.964143572 -9.9976189174 -9.90702936 
-9.6851172371 -9.905833135 -9.9607417865 -4.0175730456 -6.9119922799 -2.8291299046 -8.3802127804 -8.2402010565 -8.3945784939 
-7.4369835922 -7.5643046625 -9.6821659276 -9.9965957705 -9.9960825236 -5.760619179 -9.768806227 -9.6565732706 -9.7499348547 
-9.9446325575 -9.9820195964 -9.8884170706 -9.9832153365 -9.7489128823 -9.7596937086 -9.8588082015 -9.8564130215 -9.9279417428 
-9.7054128475 -9.9031086659 -9.9615659965 9.1618486826 5.0647540148 9.1243211878 8.144348863 9.752510728 9.742690557 
9.0856761244 9.8804652025 9.9688273786 9.4721860062 7.8753554918 9.3136916588 6.8767521401 3.1783136201 6.4821470561 
9.8043809311 9.6806532288 7.5827356522 8.6120894405 9.9666603509 8.647528871 9.8650531039 9.9434924651 9.9536915785 
9.9255917521 9.9599585784 9.9697071289 9.1394272757 9.9226072557 6.3241417252 9.6870847789 8.6180859925 8.6558554373 
6.7750545836 9.1566534251 9.569515746 9.9582144788 9.5982985603 9.9800702255 9.9374087333 9.9505330225 9.8613027199 
9.9751271724 9.9691607212 9.9030570593 9.961037717 9.7818305416 9.8202294351 9.9603044508 9.8840458256 9.9661516953 
9.9942513766 9.9897886007 9.9647875854 9.7908723851 9.9048173976 9.9224122798 9.8496134616 9.8568553809 9.8497645679 
9.5637338393 9.835903645 9.5742821967 9.7564298995 9.9114817272 9.6983802984 9.6601587499 9.9486504089 9.8236849363 
9.908158352 9.8325061221 9.9684906378 9.6567245614 9.8552616338 9.9705335706 9.8188323761 8.476095279 9.7097250959 
9.7996335249 9.6757464362 9.8823235402 9.6515840708 9.9999556956 9.6917215244 9.8752860162 9.9506294446 9.7178581137 
9.8395886946 8.8064417318 9.7670368766 9.8909950177 9.3276160774 9.4989185344 9.969992732 7.7185685045 8.8985705801 
9.460797905 4.3613816951 3.8221954943 9.2638521922 9.829893004 9.9041662298 9.8561829743 9.8930582021 9.8186519402 
9.9963334648 9.7541586098 9.7918326669 9.817954415 9.7445050608 9.8848329525 9.8081562238 9.7898551658 9.8540302853 
9.795344738 9.76107748 9.750627976 9.710705241 2.3068903193 5.9140273942 5.072438114 8.8274285188 6.7818838932 
3.6960734845 8.8909674916 3.9129808431 5.2640911879 3.2178154363 6.1026749262 4.3691072858 3.3316663399 5.2265991287 
-0.43948508598 0.2442906503 0.86492122837 -0.058940017817 -0.22347303875 0.67862955585 1.1964963841 -0.89560044258 -0.49040978279 
-1.8718441277 0.032687730373 -1.7748016406 -3.8222000487 -3.4155611936 -3.7490219947 -2.4113528354 -0.6727418489 -0.97315285376 
-0.7679575546 -2.2400552288 -0.086349559592 -1.5804421992 -1.0194250628 0.48990673708 -0.057160119584 -0.8185923668 0.65799048547 
-0.1912066591 -2.280789219 -1.1488886366 -2.8422582609 -2.4856692693 -2.4633580186 -3.565033429 -2.5531786386 -2.611277749 
-1.1198456286 2.1585464797 1.4672161703 0.36339569832 -2.7971098832 -1.998447307 -1.0498239974 0.57651578247 -2.8895329974 
-2.6688524572 -0.51522635567 -1.42819489 -1.4798274068 -3.0308624556 1.6592283997 0.66888587952 1.464898173 0.65770193665 
-2.3638373263 0.94214182081 -0.48476459925 -0.11253833194 0.70523730112 -0.92309382795 -0.47183387697 2.8003482457 4.1029487736 
0.39403538311 2.9310510373 3.4617245853 3.859361232 2.29993906 2.146064425 0.26134170809 -1.7913885843 -0.55950923929 
1.8574915563 -1.9306287448 0.014744957106 -2.4794451407 -1.1657442556 6.2422205088 5.0769264021 2.7299988817 0.034134414092 
2.2659262726 1.4286610236 3.2657858555 0.64710969972 -0.23388364878 -0.34008084123 1.2084781286 6.9928075041 -1.6831593549 
-0.72386374106 -1.9968621064 -0.024723443051 1.303587173 -1.5524972518 -0.39509761689 -1.7164652358 1.2783689414 0.50061717587 
1.4144895955 -0.62469157011 -1.2921421678 1.4519980091 1.1136833373 3.5240183663 9.686834032 1.1541743168 3.4533311154 
2.8395942669 4.2053862966 7.0201648964 0.59011185056 2.1699814728 2.6091947973 4.4638490589 1.7533917606 5.381992777 
8.5661629775 -1.565917103 2.2092654945 3.1361456442 0.57405432255 -1.7235125815 -0.42675494229 -1.4194711244 0.12247924118 
1.3549666637 1.3679701128 1.8737115028 0.51079662829 -0.35427719097 -0.88285282169 -0.14623861949 1.6524144194 -0.11068464352 
1.9971862677 -1.3935458779 -0.34268994823 -1.0571329097 1.2040623978 0.96292041831 -3.1912002781 0.69494050838 1.4463808127 
1.4693269311 0.28408444501 1.8767603935 1.1702466551 0.46315343758 -0.73531742377 -1.3869172282 -1.9092602216 -0.40573572559 
0.39151942509 2.1885165956 0.11647702064 -0.4982276077 -0.1086089327 0.64047565081 0.22858627311 1.6942743671 0.93522575183 
-0.31919337311 -0.66249112098 2.6663139137 0.57720400006 2.2506701486 -0.32257800478 0.98259542349 0.099086961866 1.2482193306 
0.21472781689 0.81795312098 2.4184145776 2.4855060419 -0.37538057935 -2.238092139 0.58016038707 -0.47907476838 0.61286655462 
1.8627217502 -2.3051166544 1.1457754334 2.6422679474 0.70792715286 1.3779389375 1.160829168 -1.9410675829 -0.023908307258 
-1.3163473159 1.2214067064 -1.533303174 -2.1306585027 -2.1788344123 -2.2029266866 2.5703588201 1.0038837877 1.2381596249 
1.4498365747 2.7424795848 -0.42788043743 1.7760573873 -4.3250756071 0.28859735929 -0.6770074893 0.26010538914 -1.6145892283 
-2.8762746055 -2.0368094908 -2.3766414325 -0.084486293551 0.63679941147 -0.41492251797 -0.59775166593 0.22969119378 0.43588423303 
-1.4565686318 -1.2897108767 0.57089554059 -0.83752815754 0.19590914663 -0.36120678314 
