# vtk DataFile Version 5.1
vtk output
ASCII
DATASET POLYDATA
POINTS 356 float
0.456737 0.385213 0.206189 0.434703 0.469891 9.33843 0.402945 9.11633 0.184637 
0.568414 9.00805 9.08445 9.26359 0.507528 0.166442 9.08901 0.574939 9.20448 
9.25851 8.88334 0.240869 9.25697 8.8851 9.18175 -0.0304478 0.165577 1.15954 
-0.0946644 0.156267 2.55589 -0.125103 -0.0995504 4.21177 -0.156608 -0.0344605 5.78502 
-0.231339 0.164163 7.33395 0.126439 0.312295 8.45832 0.0308787 1.27632 0.159094 
-0.224891 2.64364 -0.41292 -0.376994 4.42134 -0.325661 -0.430526 5.55565 -0.352847 
-0.401875 7.41072 -0.242744 0.315931 8.44425 -0.0294186 0.276578 9.10047 1.33314 
0.0484627 9.22412 2.82453 -0.0582217 9.25714 4.31468 -0.0121632 9.24953 5.56331 
-0.00128484 9.20369 7.09831 0.259222 9.1529 8.38564 0.0869285 1.28691 9.22325 
-0.15864 2.49871 9.64747 -0.340116 4.31042 9.35376 -0.405533 5.46497 9.45855 
-0.35837 7.34578 9.43244 0.262682 8.46537 9.31707 9.36815 0.118632 1.10364 
9.53256 -0.129978 2.60546 9.64052 -0.15826 4.15962 9.62567 -0.0979237 5.75764 
9.7195 -0.124177 7.3058 9.34416 0.0922358 8.65974 9.34243 1.22076 0.187937 
9.46338 2.68178 -0.331725 9.40575 4.45089 -0.242938 9.4643 5.56537 -0.31273 
9.47356 7.42857 -0.116219 9.31261 8.37727 -0.0971709 9.36173 9.15547 1.13366 
9.5308 9.15666 2.63673 9.42574 9.03989 4.23777 9.38316 9.11074 5.69399 
9.47122 9.22062 7.20443 9.27188 9.18507 8.54714 9.37798 1.22673 9.37223 
9.36054 2.57808 9.49989 9.52157 4.3664 9.47845 9.27563 5.52523 9.29636 
9.4602 7.29835 9.27676 9.11033 8.40327 9.22503 1.38768 0.302827 0.00544671 
2.76242 -0.15157 -0.0911284 4.57876 -0.0675141 -0.11453 5.87185 -0.138606 -0.0671063 
7.31755 -0.119378 -0.335885 8.48796 0.21602 0.00414948 1.50526 0.375882 9.41518 
2.82868 -0.136914 9.58641 4.52607 -0.126415 9.67044 5.87387 -0.0130211 9.471 
7.37256 0.0539964 9.47306 8.55045 0.237479 9.55705 1.25636 8.98751 -0.0995864 
2.62448 9.48479 -0.164869 4.42621 9.3875 -0.448906 5.92104 9.49325 -0.363192 
7.41898 9.49084 -0.414709 8.67578 9.20933 -0.173137 1.31338 9.06049 9.40234 
2.67701 9.60235 9.37182 4.44426 9.35443 9.35188 5.90227 9.42042 9.59869 
7.46058 9.37998 9.54076 8.60625 9.13823 9.29612 -0.527931 0.423786 4.92533 
-1.1391 5.85767 1.59769 -1.23616 5.90604 8.03902 -0.648986 0.477599 8.11143 
-0.625146 0.488637 1.70948 -0.549373 3.23847 9.031 -0.0932519 8.43713 8.85762 
-0.54014 8.57796 6.583 -0.604146 3.11779 0.530455 -0.617313 8.5536 3.42203 
-0.184961 8.42508 0.597763 -0.979121 5.85684 4.98698 -1.2216 2.84662 3.2873 
-1.24149 2.89278 6.69507 -0.249541 0.545389 9.27273 -0.491045 0.50283 6.54677 
-0.743262 0.368083 3.49328 -0.0824183 0.705333 0.56863 -0.955225 4.83332 8.77145 
-0.648398 6.10073 8.91232 -0.768136 7.25276 8.54566 -0.747675 7.3934 7.33293 
-0.481503 8.48537 8.00554 -1.07191 4.64312 0.715343 -0.583292 6.11665 0.462215 
-0.682097 7.31013 2.54198 -0.799512 7.37196 1.00459 -0.466356 8.59168 1.78182 
-0.298545 8.54079 4.99784 -0.992907 7.30365 4.24675 -1.37353 5.91317 3.33243 
-1.01802 7.34538 5.72583 -1.2699 5.88172 6.65027 -0.985443 4.42516 2.47288 
-1.14767 2.98617 1.62687 -0.719257 1.28683 0.809054 -0.746758 1.1037 2.55105 
-0.952375 1.03321 4.19635 -1.02281 4.43137 7.45782 -1.11504 2.99135 8.30667 
-0.903436 1.03658 5.7693 -0.787402 1.06631 7.32361 -0.611749 1.3008 8.78288 
-0.928537 2.78473 5.00096 -1.34289 4.37185 5.77383 -1.3355 4.33898 4.1806 
9.48599 0.668821 4.97203 9.72148 5.89228 1.6874 9.8686 5.89493 7.91542 
9.7359 0.577262 8.09054 10.0021 0.663254 1.78853 9.75453 3.17239 8.82737 
9.68688 8.26754 8.89405 9.61903 8.33179 6.54089 9.58767 3.17479 0.584806 
9.73937 8.31833 3.47569 9.41687 8.32937 0.481046 9.87276 5.75024 4.96226 
9.87949 3.03808 3.49245 9.65809 3.0204 6.6029 9.75047 0.69542 9.16835 
9.37613 0.605697 6.4859 9.7208 0.602379 3.41023 9.70227 0.774921 0.505266 
9.70105 4.83961 8.66721 9.84803 6.02043 8.86106 9.74399 7.20411 8.45244 
9.96583 7.24072 7.21108 9.72251 8.36413 7.94367 9.84616 4.70769 0.738702 
9.60342 6.07294 0.482593 9.80223 7.16095 2.53398 9.77346 7.27293 1.10109 
9.6681 8.35624 1.84057 9.8434 8.30492 4.98443 9.6185 7.14883 4.22445 
9.82347 5.74859 3.39544 9.62918 7.13307 5.75469 9.72342 5.81404 6.61167 
9.74088 4.31413 2.48711 9.86692 3.11817 1.75771 9.82577 1.43618 0.941856 
9.70091 1.44181 2.67062 9.849 1.43285 4.1889 9.91705 4.43334 7.37201 
9.70231 3.07949 8.13227 9.83314 1.47981 5.78611 9.91799 1.30614 7.37469 
9.62545 1.36914 8.60944 9.69652 2.92943 4.97238 9.59264 4.34835 5.76333 
9.59073 4.4209 4.24398 4.13321 -1.07476 1.56974 4.05825 -0.951704 8.3295 
9.14949 -0.591778 4.96854 8.8761 -0.274496 8.09037 9.15241 -0.719629 1.75628 
6.67514 -0.835182 9.27151 1.37911 -0.217231 9.05454 1.27862 -0.689952 6.66625 
6.82616 -0.624246 0.519936 1.28639 -0.609451 3.34801 1.43908 -0.0862587 0.610801 
4.15853 -0.912437 4.99847 7.11213 -1.38202 3.25613 7.1045 -1.20151 6.62733 
8.84147 0.0256295 9.05076 9.10767 -0.673483 6.51023 9.10915 -0.863172 3.40722 
8.96268 -0.0685443 0.453678 5.37267 -0.775505 9.13042 4.03621 -0.506912 9.07847 
2.78655 -0.494928 8.74697 2.70284 -0.694144 7.45879 1.35611 -0.440982 8.18296 
5.30329 -0.808812 0.761525 3.97767 -0.471299 0.446157 2.71367 -0.751453 2.51095 
2.72781 -0.729924 0.943173 1.34922 -0.567263 1.69246 1.23721 -0.455797 4.99102 
2.66557 -1.07289 4.20481 4.14985 -1.26786 3.30074 2.63854 -1.04693 5.79716 
4.17292 -1.31661 6.69729 5.58979 -1.01102 2.39181 7.01184 -1.05127 1.61606 
8.46003 -0.776399 0.850004 8.46418 -0.848096 2.6241 8.53198 -1.10351 4.10571 
5.6406 -0.976372 7.60741 6.93195 -0.899796 8.32589 8.64488 -1.12921 5.71338 
8.63971 -0.915806 7.36119 8.44087 -0.639217 9.0715 7.21317 -1.10227 4.9679 
5.62545 -1.3364 5.84045 5.58021 -1.39063 4.17892 4.07855 9.80123 1.72686 
4.03884 9.83606 7.93975 9.15649 9.6109 4.93776 9.15039 9.48541 7.93997 
9.18386 9.81098 1.83939 6.72222 9.76366 8.89371 1.2803 9.55851 8.85046 
1.2796 9.60985 6.63143 6.75506 9.54242 0.642966 1.26292 9.43129 3.42772 
1.23189 9.59305 0.649 4.2045 9.84339 4.93824 7.0714 9.54641 3.37534 
7.02319 9.78535 6.57506 9.03794 9.36834 9.04204 9.16166 9.55367 6.55054 
9.2122 9.76292 3.43074 9.16794 9.43393 0.358428 5.2938 9.8874 8.68863 
3.92138 9.83946 8.88919 2.77362 9.78509 8.53864 2.71171 9.99552 7.23327 
1.34896 9.68318 7.82377 5.414 9.71638 0.834461 3.92032 9.86633 0.52567 
2.66593 9.88488 2.59924 2.65887 9.56474 1.09404 1.33558 9.71302 1.85268 
1.21789 9.63769 4.97796 2.71356 9.79527 4.24744 4.2195 9.57771 3.33449 
2.69107 9.74305 5.75232 4.19596 9.77179 6.5533 5.61137 9.7766 2.49881 
7.0482 9.92652 1.89192 8.45228 9.65603 0.912751 8.52672 9.45488 2.62564 
8.60777 9.54044 4.25334 5.57601 9.97678 7.27036 6.94329 9.83412 7.92971 
8.57641 9.68131 5.75652 8.6129 9.74699 7.20155 8.51359 9.70264 8.6336 
7.11388 9.81506 4.98118 5.59076 9.65921 5.79758 5.60006 9.73339 4.231 
1.59192 4.1283 -1.13843 8.08846 4.07926 -1.11862 5.0103 9.01371 -0.500687 
8.12227 8.932 -0.617346 1.84632 9.03379 -0.698854 8.98241 6.73657 -0.581783 
8.87715 1.48624 -0.3664 6.53858 1.21945 -0.759339 0.462794 6.78746 -0.562374 
3.49222 1.27382 -0.609483 0.617542 1.39522 -0.402034 4.95613 4.13362 -0.918676 
3.36673 7.08476 -1.21682 6.62868 7.11532 -1.1272 9.06982 8.74936 -0.210036 
6.65942 8.89615 -0.623513 3.49717 9.01248 -0.642141 0.586019 8.93757 -0.319001 
8.85081 5.21371 -1.00411 8.88536 3.89354 -0.587341 8.66284 2.72092 -0.894719 
7.34804 2.60953 -0.856248 8.02637 1.26523 -0.581047 0.729979 5.34643 -0.962945 
0.468992 3.90123 -0.649936 2.53082 2.60612 -0.924072 0.947293 2.65421 -0.847877 
1.79168 1.19428 -0.658416 5.05154 1.17577 -0.547286 4.23796 2.65357 -1.08137 
3.33364 4.17314 -1.18693 5.77855 2.74828 -1.03122 6.64893 4.15796 -1.28447 
2.47936 5.56944 -1.02426 1.54991 7.03792 -1.08928 0.871953 8.37185 -0.698968 
2.59663 8.5674 -0.82569 4.30752 8.49831 -1.02003 7.44069 5.54809 -0.932453 
8.29916 6.94333 -1.08053 5.8265 8.52075 -1.15458 7.40459 8.49064 -0.942971 
8.8355 8.38218 -0.772284 4.99211 7.04242 -0.983684 5.7914 5.62416 -1.22606 
4.19679 5.663 -1.21531 1.58177 4.11926 9.86067 7.94443 4.09399 9.8713 
5.14204 8.99007 9.78512 8.16117 8.93639 9.94379 1.87801 8.97462 9.99511 
8.90931 6.62036 9.76719 8.81916 1.40685 9.66582 6.55639 1.23231 9.91012 
0.523572 6.77324 9.57569 3.50705 1.28797 9.70697 0.708179 1.40936 9.69493 
4.92906 4.27189 9.61445 3.38229 6.9779 9.63006 6.62636 6.97333 9.96476 
9.08318 8.78639 9.66378 6.61675 8.90183 9.70015 3.57083 8.98873 9.97228 
0.603497 8.92968 9.71182 8.75151 5.20106 9.7725 8.848 3.90586 9.62483 
8.48885 2.64077 9.96283 7.20277 2.69363 9.824 7.88263 1.28648 9.66568 
0.730664 5.38009 9.68856 0.513713 3.84438 9.88442 2.50515 2.73035 9.91192 
1.21374 2.66448 9.73759 1.85041 1.23835 9.85158 4.99532 1.21379 9.71308 
4.20758 2.74726 9.88983 3.41847 4.24639 9.66686 5.78638 2.79284 9.67038 
6.6372 4.16783 9.9809 2.57939 5.48282 9.63449 1.6882 6.90312 9.96177 
0.992403 8.28233 9.74557 2.7026 8.27689 9.56896 4.28263 8.29137 9.75768 
7.34422 5.58477 9.77045 8.05761 6.90881 9.63643 5.90986 8.35361 9.76608 
7.34454 8.40279 9.85867 8.63284 8.3345 9.58249 5.03621 7.04614 9.56038 
5.77316 5.58098 9.67285 4.17631 5.65993 9.80557 
POLYGONS 709 2124
OFFSETS vtktypeint64
0 3 6 9 12 15 18 21 24 
27 30 33 36 39 42 45 48 51 
54 57 60 63 66 69 72 75 78 
81 84 87 90 93 96 99 102 105 
108 111 114 117 120 123 126 129 132 
135 138 141 144 147 150 153 156 159 
162 165 168 171 174 177 180 183 186 
189 192 195 198 201 204 207 210 213 
216 219 222 225 228 231 234 237 240 
243 246 249 252 255 258 261 264 267 
270 273 276 279 282 285 288 291 294 
297 300 303 306 309 312 315 318 321 
324 327 330 333 336 339 342 345 348 
351 354 357 360 363 366 369 372 375 
378 381 384 387 390 393 396 399 402 
405 408 411 414 417 420 423 426 429 
432 435 438 441 444 447 450 453 456 
459 462 465 468 471 474 477 480 483 
486 489 492 495 498 501 504 507 510 
513 516 519 522 525 528 531 534 537 
540 543 546 549 552 555 558 561 564 
567 570 573 576 579 582 585 588 591 
594 597 600 603 606 609 612 615 618 
621 624 627 630 633 636 639 642 645 
[...]
CELL_DATA 708
SCALARS scalars double
LOOKUP_TABLE default
-5.5718191828 -9.6756434149 -5.2344931354 -5.6041333073 -5.7076857572 -6.1832480178 -9.3055658707 -5.5993966841 -8.6186113126 
-5.4288822147 -8.6699902669 -5.6500144942 -5.8107799497 -3.7466611231 1.4332422361 1.4202927253 0.027087330668 -0.6925784004 
0.28604349021 -1.0275232197 3.2105233683 3.7093768438 2.0517079258 2.3078483654 5.776578942 6.1592127966 6.8705621134 
6.0924564404 5.9277323098 4.5280217419 0.86011221515 3.917927057 0.37926855982 -0.63212163461 0.014629992851 2.3023070968 
-1.9338972611 -0.52541936002 2.4341531607 2.4915568781 1.1413326238 4.0757135871 2.1306910918 6.7195675747 7.1917843506 
6.1864518109 7.6732980923 6.8016935357 4.0718114552 0.32174570055 -0.32414206615 0.27118614782 2.8622046471 5.599251294 
4.6729446371 6.4065736047 1.749964187 4.6240987544 3.4910578467 3.7665453615 1.1052664563 3.6040278329 2.6335669416 
0.60065776862 3.1943633416 2.6043832085 -0.17949757316 4.4380292565 3.9296036479 5.0249780365 -0.83184070801 -2.1037642241 
1.3115589954 0.77747272283 -4.0123882977 -3.491554717 -5.6640307392 -2.0909937234 -3.789105342 -5.2019789642 -5.8982334444 
-1.7035855134 -1.5210418508 -2.3742934806 -0.11455884068 -2.2650249228 -1.833134907 1.0559248574 -0.9281907107 0.79673029645 
-2.155900526 -5.7102096508 -5.116964407 -5.4111802879 -0.36648768904 -5.3523205317 -0.60314424105 1.0409676538 2.8440761631 
-0.55147891058 -2.1126074985 -2.417813377 -5.4921842769 -0.91113237735 -0.62876094198 -0.0068282333375 0.47857894733 -1.5342717029 
1.4720073429 -0.62026630794 0.44077969149 1.0269915118 -1.8158215357 -1.3413501252 2.3325595943 -1.700651448 -1.7142916177 
-2.5293845133 -1.7476584872 -6.9845320666 -1.003885739 3.7903683013 -1.1985136092 1.814927755 -3.5871389714 -1.2942532622 
-1.7399780705 -1.1392443043 -6.3594776571 -3.0095069503 -6.5722529644 -0.16592123238 -1.2969219124 -1.99824759 -0.74490354183 
0.54678188643 -0.57632163317 2.4635617198 0.21264583507 0.36536387541 2.5876047344 0.96139869938 -0.69080419705 2.1908596205 
3.9190293214 4.7479174693 4.3514484974 2.0437338561 0.90838698103 -0.87970472247 1.8603555145 0.39949352383 0.96097719373 
1.6144396884 -1.164072193 -0.72739415067 1.244144788 -0.47695200284 0.87700710434 2.1719577911 1.0475811562 3.2007036181 
2.0770542419 2.0078160059 2.7128234783 2.0540902658 1.9963954285 -0.8384366356 -0.1340108122 0.14212267419 2.0798771388 
1.6821484307 4.0803735029 2.160328252 -0.33705330792 4.4844299447 4.9507978785 -0.22492107196 1.6282331915 0.80937260165 
1.6130965125 1.2561386852 -1.2477081994 -0.73088266036 1.7628141914 -0.85840375786 -1.463831561 -1.8539446221 0.48140849837 
-1.3853730704 1.0619821524 0.60103722473 -2.389867048 -0.46007560815 -3.3993085433 -0.61066133664 2.2976329519 -0.9972643164 
-1.2911335748 -0.62153162685 2.9201268055 -1.0504422646 0.86278122258 -0.59332036905 -0.32147591482 -1.686423262 0.24465134079 
-0.54241489507 1.3287681043 -1.2542116944 -1.4169292819 -5.240712338 -1.1555248573 -2.0922104857 -0.15869217785 -2.9127658535 
4.4375810633 -0.63260741371 1.3489979448 0.20304093054 -4.1129625749 1.0363411362 0.35483936868 0.97729017218 -0.7403972745 
0.75582502485 -1.4273747909 0.27777969304 1.651482602 -1.9156162805 -0.18726606794 -1.1490409058 -2.0190253091 1.3378037634 
0.61869466181 0.71807691056 -7.7981601102 -4.5192159675 -8.0024671042 -7.0655760248 -6.8899313689 -7.210615198 -8.8611452709 
-7.4150026941 -5.5344922054 -7.872723179 -3.6126377093 -6.5118977792 -5.6134732553 -5.5853388618 -4.8572632917 -8.4666932744 
-7.5520832706 -2.2764129135 -3.4010991994 -8.3252836584 -4.9190267966 -9.442533159 -9.5891276321 -9.8151691138 -9.823512969 
-8.8801000724 -8.4841746284 -8.0959637543 -8.5183827326 -4.5305838161 -8.529845454 -9.1403846196 -9.1183369484 -5.0015538287 
-8.3432567546 -8.6615983265 -8.8165002568 -7.7541984621 -7.709476498 -7.8312659272 -9.7264850967 -9.9278175983 -8.5483783457 
-9.9203833668 -8.9836829206 -8.6207604395 -8.3366122258 -8.9243381114 -8.8711981016 -8.8346776676 -8.3044291264 -8.8128181092 
-8.7253713003 -8.2655164525 -8.1302667097 -9.2893503179 -8.8350918897 -9.6033822319 -9.5216175939 -9.6190994411 -9.5272861724 
-9.787698149 -9.5263287185 -9.7016653632 -9.7230526684 -9.3561553628 -9.3466482435 -9.9508087679 -9.3774737995 -9.2990972103 
-9.1962043865 -9.8184129329 -9.2733889333 -9.7342302224 -9.9040385705 -6.0689060012 -5.517569673 -9.4094224121 -6.2203198037 
-7.5429983173 -7.6052782154 -9.659835472 -9.9016375132 -9.3921812115 -9.3249197913 -9.853469238 -9.8914507598 -9.8455671561 
-9.9720168714 -9.9162208651 -9.8425385585 -6.88268194 -7.0984547549 -7.926926671 -3.2333393186 -3.4196320266 -5.1440081814 
-4.6407770105 -4.0812257253 -9.8757281939 -9.7849159536 -9.8187752084 -7.2600818124 -9.9819192294 -9.8286401968 -9.9982486776 
-9.796980948 -9.7091991557 -9.6249235315 -9.7479162287 -9.7107405606 -9.5759298872 -9.8812021296 -9.7730008988 -9.5370848806 
-9.8299256138 -9.9168659306 -9.8659875836 7.7980025389 4.569690757 8.3821303586 5.783073716 7.5757387384 4.2038443371 
5.9182096781 7.20741466 3.7095373501 7.9901354214 3.6359150863 8.7746166551 2.5938199471 1.9539676241 7.4885125632 
9.9931639089 7.2896394248 8.7902608301 8.9308329117 7.4652208897 8.458632799 9.8691583924 9.857297766 9.6923790873 
9.7459855675 9.4817175569 9.1521136261 7.8835643429 9.1236604612 7.0756302553 9.9896599082 9.7380279825 9.736538006 
6.9268853334 9.9881078419 9.9518007057 9.9494883862 9.8456425771 9.7682425864 9.1647170976 9.7577628297 9.6292666157 
9.9327340214 9.780849364 9.878028558 8.742399448 7.7265895525 8.7585847106 8.8539842714 9.56831931 9.9712612429 
9.7701577589 9.653407431 8.9255410149 7.3761383198 9.5690341306 9.559389073 9.5963347773 9.6655140771 9.5576104904 
9.829157505 9.8567854285 9.8397332974 9.6779770998 9.9812600877 9.903374026 9.8312927404 9.9827377801 9.9646103338 
9.763823493 9.9550764343 9.9851782227 9.4752260144 9.687109397 9.9332190333 9.0967633846 6.9186815333 9.979223723 
9.2410877465 8.1540637122 7.6633798277 9.2428655986 9.2706142664 9.5281447729 9.5684263227 9.6126806278 9.963543643 
9.9265915163 9.9330179301 9.9484233861 9.9802210058 7.9560059325 8.4972357046 9.5927713759 8.9926946422 8.2743926679 
9.2532498465 3.8926319714 7.5950091569 9.9546074644 9.9873011904 9.9708196206 9.9555320745 9.9661478835 9.8100770896 
9.8641641701 9.7720382789 9.9142478017 9.9353923382 9.7684524644 9.8972539957 9.8653291216 9.8825080142 9.9157084466 
9.9359380777 9.8575542492 9.9540957684 9.9594640195 5.9701690518 6.0042177888 4.6485920568 3.6657916812 6.2864041899 
2.0104401434 6.1829336847 5.4414779958 6.2170323106 5.6613124928 9.0195822241 6.1472298459 2.4348848593 9.457825856 
1.4853754718 -2.4953321376 -2.036916542 0.78797246148 1.3148647507 0.59666197784 -0.80194002794 -1.6861083238 -3.2794292462 
-1.395787784 -2.0595747233 -2.3363712173 -3.3412653735 -3.5384699329 -3.5330463368 -3.0086535681 1.059463346 -2.4626346903 
1.034182685 -0.62966609266 0.61111769891 0.073268404636 -1.3157745349 1.6525330519 -0.43345373572 -1.1941650086 -1.709572475 
-2.0380631699 -2.6477867986 -1.5818055752 -3.434736222 -4.9559589334 -3.3211510131 -4.7601122856 -5.1308742919 -3.611168896 
-2.3488186464 -0.069164756149 0.15326958889 0.16108490577 -4.0324112644 -4.0461829475 -3.8292061133 -2.8349798873 -3.3429906516 
-3.3417406838 -1.5363835518 0.28943388896 -1.2090555736 -1.2638324008 -0.45549877656 -2.2323601481 -2.284540621 0.96537489414 
-2.3606749786 -3.3166239794 -3.1489558359 1.0861636627 1.576483445 -0.86755754631 -0.61363447462 5.4486402378 7.4302695036 
2.0368435816 0.43245145322 5.8243809407 5.0022947427 5.0900527452 1.2845327487 2.1830044814 0.37106197958 2.3349916768 
1.1570561768 -1.151856705 1.6143752562 -0.65046037636 0.5707048426 6.0330264049 4.6267030829 7.2713659254 -0.19683061995 
5.4748469043 4.3152672534 3.874994897 3.379978339 -0.42278945769 1.1092689926 1.6153287221 7.5326219394 -0.67413483511 
0.42526613825 -0.65761890042 -0.32295490674 1.7766141819 -0.83613492227 1.4396600641 -0.6347314365 -1.1108133703 0.97410839862 
0.4652535018 -1.9583975622 0.82797640921 1.1717781218 1.6704254715 2.3885707629 8.6335965795 3.0887398203 2.4778705999 
1.5426208165 6.148339355 8.4750856784 2.443682504 7.7574577173 1.3385681065 8.4170422717 2.5522924327 5.2393305165 
9.8366694258 2.1617940226 -0.91870023992 -0.89252986579 -0.65865064253 -0.74643503105 -0.07882064663 2.4378327054 0.22757306621 
-2.2658143425 -0.22617089644 -1.6462491909 -2.262185873 -1.3412358424 -2.1349383321 -0.95367675433 -0.78604742774 1.6865814405 
-0.88649785234 0.99903277844 -3.7144633191 0.17467653989 -0.50656518653 1.2802132149 0.50442112643 -0.99973900578 1.7517648533 
-0.50604234149 -0.79224778165 0.19860309964 0.19049187332 -0.61037934532 -3.850953739 -1.3478617534 -3.2853758742 -3.5399416856 
-1.2644519641 -0.079089965781 -0.95957408619 -1.505656553 0.91633400363 -3.7438028106 -2.7245141398 -3.3926940646 -1.310099807 
-0.29845038606 -0.84839369621 1.0132508863 1.6322257551 1.529250171 1.0262120634 -0.87276528474 -0.75457275989 -1.493664031 
1.1461578942 0.89723124259 -1.1958281859 -0.42760097791 1.4888751458 0.29587645688 -1.0209230555 -2.0060265527 3.1989487758 
5.1694070301 -0.15273323983 -2.8140108071 1.183137272 3.8005073791 -3.8947107313 -4.3860147033 1.4211059271 -0.09426747422 
2.0370515745 0.75110877589 -0.21296779826 0.19840119383 0.88566627137 1.0762298981 1.5475428784 3.2720691849 2.0771914816 
1.7453368271 2.8799633312 -4.0507300239 -2.5622746831 -6.2556959981 0.86785104781 -0.39101944195 -0.46561371307 -0.34522934423 
0.11844895677 -1.2848466432 -1.5597654244 -1.6904372043 1.0280600113 0.87929678104 1.7657225041 0.63782657697 -1.1691383488 
0.92543924611 -0.43006513738 -0.94451890734 1.5279001537 -0.50645260607 1.2023060334 
