# vtk DataFile Version 5.1
vtk output
ASCII
DATASET POLYDATA
POINTS 356 float
0.550421 0.631818 0.275104 0.713123 0.676128 8.94125 0.684851 8.65571 0.407998 
0.717498 8.78706 8.93802 8.82484 0.79989 0.457532 8.69113 0.842622 8.80128 
8.873 8.61925 0.345518 8.85349 8.50166 8.85301 0.199801 0.380251 1.39733 
-0.167566 -0.01281 2.4906 -0.343138 -0.256702 4.12187 -0.32232 -0.283443 5.83112 
-0.199685 0.0583713 7.25972 0.226607 0.387112 8.2693 0.142806 1.35706 0.36815 
-0.0578244 2.41565 -0.30193 -0.261008 4.21321 -0.26938 -0.305691 5.80856 -0.329212 
-0.172744 7.30345 -0.0804162 0.637475 8.12366 0.132479 0.492786 8.83476 1.32855 
0.0705039 9.00248 2.70124 0.0331743 8.93072 4.2838 -0.045168 8.93279 5.62339 
0.0913194 9.00205 7.09528 0.547286 8.72892 8.12169 0.310395 1.42471 8.88647 
0.121287 2.45071 9.5545 -0.376786 4.17237 9.39122 -0.247872 5.81738 9.31748 
-0.13841 7.35108 9.25509 0.629162 8.16492 9.09278 9.228 0.377868 1.12982 
9.38573 -0.026655 2.46907 9.45287 -0.226081 4.1664 9.40934 -0.254859 5.75561 
9.39937 0.00826725 7.28034 9.12035 0.337738 8.39735 9.05682 1.41335 0.39445 
9.2677 2.56203 -0.357714 9.4085 4.11665 -0.241593 9.29731 5.68503 -0.295657 
9.40798 7.17578 0.0422037 8.94759 8.03489 0.0454857 9.15075 8.88302 1.10109 
9.12105 8.91873 2.6324 9.29781 9.0027 4.21994 9.36606 9.08285 5.70323 
9.15763 8.93868 7.11188 9.01439 8.82489 8.17864 8.95666 1.39926 8.95424 
9.12898 2.58177 9.53607 9.37003 4.14685 9.22633 9.16699 5.73838 9.21782 
9.12954 7.18131 8.98616 9.07193 8.10044 9.18628 1.51219 0.686158 0.161623 
2.64642 -0.015125 -0.188424 4.44788 -0.101314 -0.349668 5.98284 0.102015 -0.263639 
7.31289 0.212117 -0.303827 8.26043 0.554661 0.202907 1.53143 0.59419 9.42235 
2.64562 0.100145 9.22328 4.41437 0.067936 9.3951 5.95854 0.0385759 9.44928 
7.26078 0.224262 9.16216 8.1874 0.610392 9.21484 1.41926 8.69485 -0.00468064 
2.5402 9.13876 -0.00022706 4.38497 9.2994 -0.3625 6.00788 9.34723 -0.481399 
7.33 9.04525 -0.365921 8.41636 8.93479 -0.0394465 1.40528 8.65586 9.13492 
2.55206 9.09531 9.14187 4.45282 9.1533 9.3516 5.92304 9.14029 9.44013 
7.3284 8.907 9.29239 8.40643 8.81488 9.23912 -1.02441 0.222248 4.97034 
-1.39562 6.02806 1.64646 -1.33062 6.12173 7.81955 -0.687954 0.518834 8.05934 
-0.70849 0.598075 1.70803 -0.481763 3.23443 8.6211 0.170621 8.05587 8.60197 
-0.412943 8.19015 6.51164 -0.759754 3.23703 0.491124 -0.551311 8.26604 3.42783 
-0.102663 8.24191 0.698712 -1.73648 5.91746 4.93542 -1.75922 2.91546 3.17199 
-1.45601 2.91636 6.57738 -0.104479 0.739616 8.97882 -0.782865 0.398119 6.51092 
-0.992667 0.259437 3.30026 -0.0907542 0.693691 0.57714 -1.05204 4.84704 8.70757 
-0.675067 6.22313 8.55969 -0.610601 7.2052 8.23347 -1.00627 7.33747 7.19902 
-0.349927 8.32475 7.75553 -1.10571 4.82419 0.667404 -0.759084 6.24252 0.62545 
-1.03612 7.31321 2.55201 -0.744197 7.22571 1.19751 -0.277716 8.1967 1.9485 
-0.705658 8.38136 4.94676 -1.29878 7.33688 4.13201 -1.65434 5.89245 3.25571 
-1.28289 7.35206 5.75711 -1.37651 5.92812 6.5534 -1.59147 4.49481 2.42068 
-1.29815 2.96426 1.52306 -0.565887 1.41442 0.971939 -0.972987 1.23524 2.56965 
-1.2332 1.05158 4.12978 -1.58285 4.56614 7.3109 -1.33559 2.9861 7.98062 
-1.30094 0.919832 5.81064 -0.949534 1.12181 7.28318 -0.47566 1.43995 8.47522 
-1.85498 2.7637 4.96681 -1.82362 4.48053 5.78617 -1.69813 4.34469 4.1344 
9.80765 0.473681 4.99898 10.0156 5.94849 1.74768 10.1356 5.9669 7.81427 
9.66447 0.742585 7.99617 9.71695 0.75872 1.72062 9.38456 3.12666 8.55749 
9.20008 8.05265 8.52044 9.6286 8.09928 6.40516 9.60978 3.18346 0.632829 
9.77073 8.1507 3.40702 9.27915 8.08066 0.688804 9.89656 5.80738 4.95411 
10.1297 2.99856 3.29295 10.1187 3.05462 6.58935 9.28856 0.914207 8.95212 
9.83846 0.559521 6.4103 9.76096 0.466421 3.25003 9.42116 0.971441 0.589676 
9.84784 4.62986 8.66683 9.45126 6.0879 8.63346 9.73776 7.12889 8.24106 
9.68938 7.13571 7.0975 9.62769 8.17349 7.64278 9.99825 4.71108 0.755291 
9.42224 6.07747 0.688246 9.77228 7.11029 2.60959 9.79468 7.16445 1.14411 
9.62225 8.21688 1.85652 9.40978 8.18861 4.94569 10.0249 7.08882 4.16977 
10.0656 5.82851 3.35018 9.96455 7.08363 5.75024 10.0728 5.83316 6.49679 
9.80633 4.472 2.56029 10.1313 3.12655 1.81555 9.79416 1.49287 0.964885 
9.85804 1.31152 2.59628 9.99012 1.32875 4.16428 9.88177 4.50478 7.16867 
10.0504 3.12132 7.68651 9.88465 1.33005 5.78074 9.54555 1.23722 7.1682 
9.59006 1.43861 8.43691 9.96926 2.72209 4.99649 10.1326 4.40515 5.70254 
10.0912 4.40887 4.17628 3.99765 -1.2709 1.53851 4.03102 -1.05746 8.11738 
9.07584 -1.13584 4.89317 8.98562 -0.584871 8.11453 8.9799 -0.48708 1.66552 
6.62277 -0.397519 8.68435 1.4762 -0.0115098 8.74975 1.30888 -0.917688 6.66703 
6.76007 -0.605969 0.374602 1.21085 -0.899879 3.24592 1.40385 -0.0848553 0.625539 
4.09292 -1.56915 4.99529 7.02203 -1.55473 3.16209 6.97337 -1.39675 6.70466 
8.68528 0.294575 9.0758 8.96943 -0.758758 6.52971 9.08816 -0.914266 3.22447 
8.89883 -0.00314559 0.267737 5.34606 -0.873773 8.76116 3.94452 -0.613362 8.91901 
2.69062 -0.568414 8.35116 2.71173 -0.943861 7.33326 1.3282 -0.523505 7.89319 
5.31279 -1.03659 0.723605 3.86681 -0.588928 0.547971 2.62251 -1.15551 2.45014 
2.7021 -0.71412 1.13426 1.33259 -0.642423 1.68086 1.09186 -0.892543 4.98201 
2.59806 -1.50676 4.12392 4.09451 -1.64271 3.17531 2.5154 -1.46281 5.86043 
4.05021 -1.58796 6.71345 5.51244 -1.44044 2.44376 6.88562 -1.17704 1.5135 
8.21977 -0.452222 0.862563 8.22865 -0.943998 2.50589 8.276 -1.07793 4.14098 
5.51952 -1.21617 7.44956 6.83761 -1.18174 8.19877 8.31406 -1.15697 5.83819 
8.25587 -0.778102 7.29842 8.17383 -0.224326 8.56242 7.01 -1.59215 4.99753 
5.58147 -1.71352 5.89082 5.58212 -1.72939 4.13818 3.97185 9.84612 1.88238 
3.92903 9.95641 7.64134 8.83981 9.36425 4.93099 8.77501 9.31609 7.68144 
8.75871 9.20091 1.89009 6.75749 9.69437 8.85245 1.41644 9.0845 8.64263 
1.2002 9.48599 6.43823 6.90526 9.80559 0.520412 1.20045 9.41072 3.38377 
1.23683 9.32799 0.770522 4.04549 10.2393 4.89614 7.09917 9.9624 3.29614 
7.05093 9.95136 6.47921 8.72163 9.02789 8.68358 8.85413 9.50229 6.49655 
8.89443 9.57296 3.26991 8.53977 8.88687 0.705887 5.28569 9.72992 8.45627 
3.81368 9.76871 8.78326 2.5694 9.57354 8.30042 2.49073 9.97556 7.10755 
1.23736 9.48269 7.65781 5.38481 9.82504 0.877845 3.72891 9.9289 0.577344 
2.40877 9.96957 2.62795 2.53095 9.54062 1.18675 1.26286 9.26132 2.02327 
0.956166 9.60074 4.9478 2.53501 9.84267 4.22322 4.05548 9.9949 3.28433 
2.60172 9.87765 5.59934 4.06473 10.1169 6.45833 5.53521 10.1025 2.53569 
6.87856 9.74325 1.87966 8.14229 9.47971 0.959782 8.2498 9.63364 2.67834 
8.30105 9.62035 4.26817 5.55178 10.0969 7.24093 6.896 9.69958 7.74651 
8.37475 9.7241 5.65734 8.25548 9.55788 7.06679 8.18015 9.27705 8.31082 
7.08083 10.1331 4.94384 5.53759 10.1156 5.70017 5.56631 10.0936 4.18647 
1.62483 3.89786 -1.23816 7.91044 3.98101 -1.38134 5.17089 8.82862 -0.925911 
7.80702 8.52934 -0.521097 1.76276 8.82449 -0.771744 8.69296 6.66145 -0.664032 
8.68498 1.45727 -0.289789 6.57004 1.22452 -0.853891 0.656594 6.67903 -0.751643 
3.53889 1.28135 -0.736927 0.810293 1.35764 -0.392401 5.0204 4.0374 -1.65229 
3.21863 6.98681 -1.63721 6.71378 6.96694 -1.60753 8.7673 8.44835 -0.136542 
6.63392 8.74528 -0.895732 3.40438 9.01836 -0.967899 0.871189 8.46604 -0.119667 
8.66255 5.14261 -1.18125 8.61568 3.74698 -0.691373 8.28297 2.67276 -0.998257 
7.18776 2.57485 -1.13912 7.75519 1.22559 -0.65041 0.562641 5.21359 -1.00217 
0.550528 3.76908 -0.892529 2.51514 2.45538 -1.2871 1.16595 2.64014 -0.87277 
1.86762 1.27967 -0.762652 5.10772 1.01995 -1.07156 4.12692 2.47893 -1.43018 
3.28057 3.98276 -1.71394 5.76733 2.47047 -1.4066 6.60831 4.05131 -1.74751 
2.39761 5.43922 -1.63843 1.69332 6.85525 -1.17079 1.05766 8.05413 -0.631235 
2.63401 8.17255 -1.00854 4.22087 8.27445 -1.1704 7.2664 5.43998 -1.45281 
7.84427 6.83609 -1.13579 5.92863 8.27421 -1.25222 7.33849 8.2381 -1.0324 
8.48858 8.08403 -0.611172 5.02061 7.05306 -1.69044 5.75719 5.62886 -1.84206 
4.05767 5.57173 -1.59709 1.80094 3.99191 10.244 7.65925 3.94336 10.0714 
5.12608 8.75066 9.58058 7.82483 8.53816 9.4901 1.97692 8.62014 9.6494 
8.75731 6.61825 9.71197 8.56649 1.52743 9.38407 6.60699 1.17646 9.97439 
0.698413 6.61107 9.48181 3.40439 1.18557 9.96783 0.945132 1.41568 9.51672 
4.96905 4.13937 10.0736 3.3661 6.90469 10.2585 6.59585 6.87709 10.199 
8.58419 8.36309 9.07526 6.64922 8.70183 9.61187 3.46125 8.77752 9.5993 
1.0108 8.29661 9.23717 8.56059 5.04041 9.77595 8.52324 3.79246 9.53077 
8.28991 2.597 9.89644 7.05989 2.59462 9.92213 7.67069 1.39315 9.80084 
0.791688 5.23973 10.0349 0.634284 3.76578 9.67324 2.66104 2.57569 10.0505 
1.24837 2.66693 9.88684 2.04335 1.51973 9.68021 5.05768 1.05323 9.74603 
4.23274 2.64032 10.1766 3.34942 4.09382 10.2566 5.64064 2.60996 10.28 
6.54466 4.05672 10.2785 2.5843 5.46547 9.93141 1.7354 6.72514 10.1129 
1.21174 7.90869 9.67153 2.75964 8.04678 9.74546 4.3299 8.1937 10.0823 
7.25324 5.49673 9.9459 7.88041 6.74617 9.8663 5.86799 8.22115 10.1024 
7.3192 8.25064 9.81254 8.47184 8.10997 9.57896 5.04339 6.96229 9.95704 
5.75177 5.55218 10.3113 4.1763 5.57038 10.2582 
POLYGONS 709 2124
OFFSETS vtktypeint64
0 3 6 9 12 15 18 21 24 
27 30 33 36 39 42 45 48 51 
54 57 60 63 66 69 72 75 78 
81 84 87 90 93 96 99 102 105 
108 111 114 117 120 123 126 129 132 
135 138 141 144 147 150 153 156 159 
162 165 168 171 174 177 180 183 186 
189 192 195 198 201 204 207 210 213 
216 219 222 225 228 231 234 237 240 
243 246 249 252 255 258 261 264 267 
270 273 276 279 282 285 288 291 294 
297 300 303 306 309 312 315 318 321 
324 327 330 333 336 339 342 345 348 
351 354 357 360 363 366 369 372 375 
378 381 384 387 390 393 396 399 402 
405 408 411 414 417 420 423 426 429 
432 435 438 441 444 447 450 453 456 
459 462 465 468 471 474 477 480 483 
486 489 492 495 498 501 504 507 510 
513 516 519 522 525 528 531 534 537 
540 543 546 549 552 555 558 561 564 
567 570 573 576 579 582 585 588 591 
594 597 600 603 606 609 612 615 618 
621 624 627 630 633 636 639 642 645 
648 651 654 657 660 663 666 669 672 
675 678 681 684 687 690 693 696 699 
[...]
CELL_DATA 708
SCALARS scalars double
LOOKUP_TABLE default
-3.4782663964 -9.0362801271 -5.4563100781 -6.8912663817 -6.0720429142 -8.1470997733 -8.9737405377 -5.4013024621 -8.6814232447 
-5.4287786358 -8.4057072124 -5.7514920055 -9.345052423 -5.5128028032 2.6883657365 2.7270514261 -2.2130729565 -3.135185334 
0.81828423041 0.85389338166 4.1148116296 4.0896834353 5.6083592893 3.5853528027 2.6030458671 5.3538626094 7.4730878985 
5.5411070623 6.6961469185 6.642271069 2.5501872857 5.8530186344 1.8862060616 -0.77614670603 -2.2231032135 1.9332855642 
-0.97808820448 -0.45655418974 1.9305989857 4.0213552428 5.6963243593 4.9434037844 5.5043342269 6.5178754461 7.4146132105 
8.0916569563 6.0120361335 5.2604307678 3.6429931013 2.8269004798 2.3722800799 1.5676153493 4.3226650789 5.9671680499 
6.2881116573 4.9690939568 5.5123049271 7.4014182921 7.8558240678 3.4528485461 2.6779878051 3.2626938596 6.4352708231 
1.8190566516 2.5583249171 1.6840548209 2.9805003664 6.0197399746 5.6223573921 4.9147984552 -0.12942074476 -1.3425166078 
-0.26164244153 -0.25268800001 -5.1106617251 -1.2874428172 -5.8014874857 -3.5768801083 -0.11151910391 -4.1714882643 -5.2989806435 
-1.122964826 -0.59162666061 -3.2984584927 -2.2025534103 -3.3213493993 0.37970848432 -1.1635138929 -2.3398090865 0.039637279167 
-1.7031936798 -6.264203116 -5.6567600619 -4.7625361889 -0.44802866537 -5.334539252 0.54081659934 1.0149527172 3.6892582628 
-0.67635349578 -2.3571974658 -3.3295923968 -3.023413388 -1.7081006091 -3.0705958397 -3.1342813931 -1.4719382641 1.5624932698 
1.8390356834 2.2385060512 0.79564114091 0.0052345741145 0.47979018645 -0.073990348749 0.1489005587 0.74145607653 -1.0086874423 
0.56476472307 -3.2371045234 -6.7373522485 -0.70233793788 -5.2323864774 -2.834846801 -4.6700089483 -6.045264533 -3.256818923 
-5.0515832569 -3.3740148551 -5.783634202 -4.6708256029 -6.9105592613 -4.2437801059 2.2171228511 2.3316753104 -1.1211851745 
-2.9163659156 1.0013376607 0.9492362074 3.3611416415 3.4410717485 0.60867601241 0.81077965285 5.495643408 5.0809108073 
5.9837319022 3.7193940019 3.910190425 0.20724359748 0.28924075845 2.5925819595 0.24537942418 -0.64904552631 0.344228944 
3.3279688091 -1.9349498697 0.41998409105 3.6439282064 1.8926171099 0.72015394969 3.4938959283 1.4806044593 5.6733363796 
2.9953632145 3.5346155236 5.7946789862 6.1577645371 3.4594541933 -0.88619044252 -1.8050997324 -0.4963507345 3.3671293989 
4.258665706 1.6339117496 3.6727585956 1.2180396831 3.1411232814 0.91575698387 2.1513717842 -0.35740972882 1.3341769053 
1.9643509791 0.18075343926 3.1407449077 1.9612191703 -0.76656004123 3.7781460002 3.6417722478 4.6878958268 -0.88991319981 
-1.9497484053 2.240226046 1.6644514517 -5.2444799255 -1.9758103366 -4.6367022739 -1.2540401419 1.4229270022 -3.0067946486 
-3.2409597353 -1.7516343824 -1.6183949471 -1.5403413229 0.20743658523 -1.7285867433 -1.8714995455 1.4033881972 -2.7749390601 
1.2541090777 -2.3023671614 -2.7299964833 -1.3495801547 1.4182390349 0.94100930127 -3.9300695979 1.418637773 -1.5744337687 
3.8617645663 0.53289168473 -2.7763570818 -2.607473946 -1.4762642637 -1.0088523527 -0.37469694088 -0.23956387538 0.9593030446 
-1.5766170738 1.050684401 -0.54499162159 1.3137027322 0.79276792121 -1.6333449282 -0.84820900942 1.52181927 -0.28622017177 
-0.62882307455 -0.85220452751 -3.207673189 2.5842156545 -7.3052657627 -5.6056959341 -6.6927804142 -3.6997149318 -2.2687761066 
-7.6336461765 -3.7803355668 -7.7475245675 -3.9441151006 -7.8147655899 2.456129688 1.8113744235 -6.0443240652 -8.7445140354 
-5.6691393063 -7.3587482758 -6.9428048982 -5.271376665 -5.846257731 -9.044534509 -8.2420399826 -9.3868637652 -9.2929240753 
-8.5234703073 -7.5837764127 -6.6084636239 -7.3828667874 -7.1978168572 -8.607176919 -7.8678047897 -7.6730458635 -6.5242096911 
-6.5033024463 -7.1897705975 -8.2035893251 -6.6016157781 -6.9245580917 -8.0943055889 -9.0253397382 -9.4622246204 -8.5374790131 
-9.2975565915 -8.6909228813 -7.2357349087 -5.0667562571 -7.8444002766 -7.1869772369 -8.6904795754 -8.6176661142 -8.2078174242 
-8.7823597366 -8.5064593633 -3.991850075 -9.253033969 -8.5513100164 -9.3780616549 -9.1907582779 -9.1631563014 -9.5492606475 
-9.9706859319 -9.5498367017 -9.1943378255 -9.9716057814 -8.9998846302 -8.9671702609 -9.9823685248 -9.1965320287 -9.211313751 
-9.2706834031 -9.7232880292 -8.7692198771 -9.7357927564 -9.7233502868 -4.7563651213 -5.3847917438 -9.0700941778 -5.0148336568 
-6.525336708 -6.5904987046 -9.9093558292 -9.2675463322 -9.1265791115 -8.562221963 -8.9520235345 -9.6716778637 -9.8910604251 
-4.6738952895 -9.6518001824 -9.1234156671 -7.6892186269 -7.8961306279 -9.2184481161 -6.8602436005 -8.0115421158 -9.0377985261 
3.9145413479 -6.0551525886 -4.9784738878 -9.1607011123 -7.9777211922 -9.9852250967 -9.621965861 -9.3022083936 -9.369065267 
-9.5154736219 -9.3354242366 -9.9597121647 -9.4809763862 -9.8571763353 -9.9565415543 -9.7456598075 -9.8403961734 -9.9475640038 
-9.9403249899 -9.8102069334 -9.9587621864 7.2981606412 3.3573031945 7.4915152251 6.0923723447 8.364171293 8.3312952854 
5.6453242461 8.129299645 4.291920499 7.733598306 7.8277207616 5.8696419813 8.0292089681 8.7528362044 9.0020734998 
9.8373863375 7.5470332325 5.7579775048 8.091577966 6.1361284377 8.5054720354 9.3994896207 8.7978766951 9.325538515 
9.2008912681 9.195340533 7.3932224378 9.2228965519 7.4058967108 7.2667095924 9.6877282618 8.503057022 8.2917684882 
7.539440757 7.9037985392 7.8408324325 9.9717281808 9.2999374057 9.3415451601 8.6533120129 9.5509551258 8.7128584093 
9.8218374656 8.7471378117 9.3324601428 8.51056066 6.649360449 6.9421185184 9.2328821083 9.5454959848 9.4576954531 
9.6053423874 8.5573438939 7.4932307711 7.1059426221 8.6550151037 9.1525955019 9.2572153965 8.5308706043 8.2045283976 
9.9387016771 9.70747494 9.9537262743 9.4538797821 9.7539367193 9.9084396212 9.9020160105 9.6850016974 9.7235534726 
9.6438598773 9.8708996711 9.8310023124 9.9864909782 9.6895930742 9.6887154914 8.8088898382 8.5201351989 9.6163605023 
5.8238869517 6.7877202373 8.4819494811 9.9603940623 8.3397637463 9.672917664 9.7000194374 9.860814432 9.5798010179 
9.556538831 9.9972701162 9.3534699802 9.594346478 8.3431625233 8.1041892757 9.6740202645 6.5723190808 8.8156579342 
9.5765260458 3.6666921345 8.9994816764 9.5435696692 9.544549049 9.5027714784 8.5135390243 9.6369347617 9.3527126863 
9.3480812884 9.9470119824 9.902842426 9.9615362265 9.9990203542 9.9616510545 9.8841963045 9.8781770393 9.9758367579 
9.9590962976 9.9438333243 9.9187490863 9.9971495556 5.5394410875 5.9130460974 6.0993369163 6.9739491738 5.7829240222 
7.1361053123 5.1442344224 5.5573515518 9.629629583 6.9309664411 9.2973232083 7.3635540296 2.8909818413 8.6903174701 
4.1008409187 -2.7756854408 -2.8895144724 1.2121720478 2.0689305408 0.2127005802 0.36256998904 -2.3982692146 -3.5256822595 
-2.7470893465 -2.8156884331 -3.8016758995 -4.7392239476 -5.8459855249 -5.7863000535 -4.3797512647 -0.11264327452 -3.1030267187 
0.6777556703 -3.5467913159 1.8486749362 2.209725578 -0.6976580426 1.7602510217 -0.46713463481 -0.53767962307 -1.5933598732 
-4.1395156049 -2.4706860101 -2.3670808656 -3.2864414675 -7.6261780296 -3.1995711573 -6.6628302641 -5.9182929157 -3.9805560161 
-2.3177757691 -1.7086584871 -2.2202449516 -0.56858711379 -4.8866580482 -5.3508395706 -4.7040332897 -4.7337731328 -4.1271014036 
-5.8725758497 -1.3268418383 -1.6345230693 -2.2954850168 -2.8830916828 -1.8124354756 -2.8556567147 -3.0607136033 -1.4862904548 
-2.9884362078 -3.8829281607 -2.3055753445 -0.86411104246 1.7936167574 1.6056911868 1.3833825511 6.9567252333 6.3559924841 
4.1878771106 2.1998090742 5.5903720505 6.2668023223 1.4716688757 0.38257725231 3.2602712612 1.9405388988 2.8784418867 
0.39851070102 0.47712445051 2.681947666 1.3033396886 3.4384541839 5.8222207827 5.8499182805 4.4503687036 1.2147020835 
5.0829474468 6.5207028929 2.6912502622 1.0860707342 1.0371399492 2.091591478 1.9723500589 4.6315477556 2.9614214307 
3.6857790204 3.6656832992 -0.080952286923 0.73823014988 -0.91309947618 0.817712781 -0.12963019397 0.56956407095 -1.1350113027 
0.63706229739 -0.52737756611 -0.44822040025 1.3391722562 0.31025622565 4.4069367219 -0.24160598192 6.09497468 6.0492833805 
5.8413331039 4.2853910784 5.605666022 6.0810998875 7.1519749424 5.1997270305 8.4583742142 6.0353933921 2.7482461022 
4.3738464564 -1.4660205645 -1.8144522454 -1.8814104242 1.0507661894 -0.60536170847 1.4456727381 0.83410296798 -1.1920452106 
-2.9328233627 -0.16094290881 -0.89864321586 -5.2901577355 -5.1737185046 -3.9598408552 -3.3508850066 -4.2057652397 1.4690338361 
-3.2235516108 1.9895882186 -4.6195138618 0.55039002543 -0.27707485898 -1.7693562518 3.162381355 0.79669631447 -1.9078887458 
-2.089235453 -1.8869749892 -2.5508796384 -2.6085349807 -5.1872211088 -2.0121008576 -3.1215383603 -4.3536548301 -2.8979927235 
-4.0043269302 -2.2254282468 -0.64249650878 0.2559832586 0.15442026052 -5.0810936355 -3.6558830383 -5.208378567 -0.99373130922 
-3.8692725674 -3.1242752382 -1.3487116246 0.13277954361 -1.0045584034 -0.42171702912 0.78794435066 -1.7942612315 -1.4914755623 
1.02838052 -2.8241817488 -2.0444169407 -2.9781182199 1.90770407 2.8864061925 -1.8636425354 -0.96234012234 5.6030445895 
5.8231617886 2.9637418677 5.493439812 4.3746619307 5.9664539106 3.9662864644 0.90699804801 3.5225571573 0.83727611552 
3.1968080553 1.2349732762 -0.61044209516 0.17990327548 -0.013010362314 1.721398229 5.714812264 6.1313774614 5.7763621693 
2.0331598648 2.4167748118 5.1865545817 6.9056636439 8.1269766048 1.2310851406 1.3157066389 1.1325381298 6.8612451673 
-0.12773331981 0.023500290107 -1.0754117586 -0.66616030035 1.292602617 -0.92233042284 1.0546662783 -1.1697985352 -0.648357341 
2.1879656458 1.148411986 -1.469027598 1.0450469486 1.733093933 2.2928710407 
