# vtk DataFile Version 5.1
vtk output
ASCII
DATASET POLYDATA
POINTS 356 float
0.604066 0.545099 0.372249 0.689192 0.745813 8.85602 0.83405 8.51815 0.394157 
0.819635 8.51483 8.76001 8.72989 0.848816 0.319632 8.71416 0.894864 8.88717 
8.93939 8.55254 0.333307 8.81804 8.45267 8.74285 0.116265 0.332323 1.32645 
-0.215846 -0.111311 2.58209 -0.481392 -0.303227 4.11587 -0.412235 -0.21389 5.74836 
-0.217751 0.00257884 7.10861 0.183751 0.459407 8.14771 0.112118 1.29799 0.258685 
-0.000798019 2.40135 -0.320056 -0.336325 4.0957 -0.31419 -0.138812 5.74024 -0.144014 
-0.0324251 7.09533 -0.00736402 0.620611 7.88943 0.197476 0.554118 8.62119 1.39963 
0.0251299 8.88374 2.57298 -0.0980854 8.97264 4.19372 -0.0233561 8.91954 5.63488 
0.0693302 8.88748 6.95959 0.574525 8.72995 7.99724 0.262504 1.39216 8.90047 
0.106182 2.45316 9.37433 -0.0440131 4.12602 9.15307 -0.0655182 5.75458 9.24738 
-0.0290155 7.19688 9.08417 0.686995 7.91722 8.98997 9.27123 0.25545 1.08698 
9.34862 -0.0661722 2.56537 9.42911 -0.179651 4.09768 9.33617 -0.202015 5.70928 
9.15649 0.120222 7.14517 8.92324 0.446489 8.19326 9.13173 1.33031 0.141066 
9.05162 2.55749 -0.230862 9.10907 4.02422 -0.152854 9.31709 5.768 -0.172751 
9.37134 7.02232 0.013826 8.77058 7.95858 0.109622 8.93631 8.8206 1.22689 
8.85897 8.77638 2.56865 9.29169 9.01002 4.13154 9.17693 9.092 5.68391 
9.01955 8.89626 6.95219 8.84342 8.69217 8.03764 8.73011 1.45241 8.59354 
8.93605 2.53064 9.31053 9.22373 4.06329 9.17891 9.13029 5.74844 9.1635 
9.16534 6.99805 8.92772 8.77845 7.88461 8.8938 1.42075 0.434048 -0.260677 
2.61843 0.0164995 -0.0956844 4.37426 -0.173003 -0.425295 5.97647 0.0457397 -0.381294 
7.15014 0.207355 -0.274813 8.18977 0.438469 -0.0315794 1.49443 0.537792 9.30681 
2.69288 0.178417 9.14762 4.3289 0.0946794 9.33932 5.98887 0.161191 9.3533 
7.16198 0.383132 9.28975 8.07302 0.613949 9.00902 1.40158 8.65713 -0.0731402 
2.54157 9.07306 -0.155819 4.3605 9.09377 -0.435099 5.91352 9.05167 -0.410052 
7.17744 8.78295 -0.36004 8.21936 8.83148 -0.00837193 1.57467 8.46698 9.08268 
2.65186 9.01639 9.07949 4.40233 8.98261 9.25245 5.91758 9.00813 9.27145 
7.09991 8.65016 9.19176 8.18234 8.68264 9.06004 -1.2049 0.177847 4.92637 
-1.43849 5.98146 1.72771 -1.34 6.04905 7.68283 -0.710437 0.526595 7.82445 
-0.910528 0.386683 1.65184 -0.777782 3.24156 8.71104 0.0965972 7.94626 8.48527 
-0.772826 8.11904 6.38587 -0.983802 3.26075 0.458098 -0.830066 8.1187 3.38088 
-0.0304861 8.11375 0.646203 -1.94283 5.8929 4.94748 -1.77443 2.94505 3.19209 
-1.6116 2.93114 6.54157 0.036871 0.92024 8.76472 -1.04042 0.290426 6.55192 
-1.12861 0.234604 3.24708 -0.175055 0.703178 0.462789 -1.05837 4.9104 8.52215 
-0.590932 6.20468 8.43196 -0.751799 7.16229 8.1226 -1.17344 7.20248 7.05225 
-0.368342 8.03567 7.6078 -1.11916 4.79959 0.810597 -1.0578 6.20394 0.53294 
-1.30201 7.20557 2.54556 -0.686537 7.1154 1.22575 -0.519531 8.05015 1.9315 
-0.926642 8.12806 4.87902 -1.41734 7.09564 4.16982 -1.79678 5.93386 3.2121 
-1.50972 7.21534 5.67275 -1.65383 5.91228 6.46665 -1.68356 4.488 2.49573 
-1.46625 3.0867 1.67818 -0.705395 1.48864 0.959464 -1.18161 1.20779 2.51946 
-1.38225 1.06003 4.12206 -1.5823 4.52534 7.10811 -1.277 3.06026 7.73107 
-1.38333 0.992607 5.72446 -1.02584 1.18813 7.10044 -0.538153 1.46912 8.30966 
-1.88468 2.87017 4.94291 -1.91428 4.45623 5.68837 -1.89639 4.47832 4.09358 
9.93533 0.47725 4.96623 9.95795 5.86901 1.88706 10.0655 5.93161 7.63236 
9.5407 0.797785 7.79277 9.46229 0.732892 1.62709 9.38154 3.14508 8.53319 
8.93809 7.74075 8.31652 9.48894 7.96759 6.28547 9.73423 3.20324 0.562942 
9.70537 8.16208 3.29304 9.08167 7.8168 0.783558 10.1146 5.75866 4.94972 
10.2894 2.98199 3.2417 9.94279 2.92029 6.41052 9.22416 0.979996 8.75857 
9.86477 0.552741 6.40887 9.84932 0.534622 3.2717 9.19379 1.05107 0.689319 
9.81235 4.65398 8.3029 9.43076 6.07847 8.38579 9.67464 7.01943 8.05206 
9.7992 7.05209 6.94314 9.47796 8.04406 7.61703 9.86976 4.72632 0.782778 
9.47087 6.05999 0.907758 9.71721 6.9786 2.65783 9.74636 7.10063 1.24717 
9.56734 8.00089 1.93648 9.55996 8.01091 4.9211 9.99515 7.01022 4.10897 
10.2248 5.83715 3.23537 10.071 7.05905 5.61189 10.0244 5.82258 6.34566 
10.2184 4.37738 2.52328 9.91464 3.03619 1.79728 9.55024 1.62686 1.00028 
9.87748 1.3171 2.57223 9.79214 1.25726 4.07228 9.94237 4.51819 7.03196 
9.991 3.05595 7.67598 9.76034 1.24028 5.65541 9.5482 1.34267 7.04213 
9.467 1.54852 8.34015 10.1172 2.82664 4.93336 10.3468 4.37034 5.66207 
10.1857 4.44613 4.10711 3.95203 -1.31491 1.56 4.03275 -1.1828 7.79643 
9.16109 -1.10777 4.93049 8.77586 -0.396077 7.96785 8.77413 -0.284513 1.62718 
6.66207 -0.545229 8.80834 1.4741 0.0286437 8.54029 1.23638 -0.95469 6.4557 
6.65747 -0.578838 0.536048 1.24217 -0.929399 3.28793 1.42922 -0.202214 0.628275 
4.04587 -1.93078 4.96006 6.85953 -1.57971 3.1553 6.86561 -1.50141 6.63313 
8.4526 0.440451 8.68055 8.93095 -0.807178 6.54717 8.96275 -0.889858 3.20285 
8.60894 0.184035 0.510305 5.25904 -0.776519 8.55019 3.85066 -0.722123 8.75024 
2.69101 -0.790994 8.22376 2.5295 -1.3639 7.15244 1.22174 -0.697449 7.81458 
5.3314 -0.914845 0.690491 3.86249 -0.789671 0.493871 2.55801 -1.41251 2.46338 
2.69516 -0.85331 1.18652 1.18299 -0.795917 1.74865 1.12251 -1.24569 4.92014 
2.61006 -1.61076 4.07207 4.03924 -1.66146 3.17619 2.63007 -1.44174 5.75558 
4.01454 -1.78565 6.6818 5.45172 -1.63917 2.35864 6.78368 -1.25157 1.57274 
8.06892 -0.443204 0.769445 8.23534 -0.974656 2.43431 8.26935 -1.19814 4.08897 
5.45632 -1.54814 7.21068 6.66968 -1.12325 7.85302 8.26831 -1.11516 5.73391 
8.19789 -0.852584 7.25977 8.0025 -0.106339 8.46121 6.86977 -1.82126 4.93198 
5.48268 -1.68787 5.7393 5.44793 -1.91301 4.03001 3.9067 9.98416 1.9638 
3.88136 9.99504 7.52671 8.62679 9.34136 4.80376 8.42788 8.91729 7.59546 
8.55066 9.27055 1.87547 6.76174 9.54734 8.67069 1.42996 9.08826 8.4429 
1.167 9.53831 6.34966 6.72001 9.61174 0.519959 1.04044 9.53102 3.3528 
1.25967 9.24685 0.764762 3.96671 10.4152 4.88846 6.8991 9.85493 3.29257 
6.78785 9.7512 6.42134 8.30649 8.60869 8.45141 8.65095 9.28193 6.38342 
8.60787 9.20362 3.39515 8.34944 8.7098 0.732352 5.28767 9.69788 8.3745 
3.74095 9.77125 8.6553 2.57773 9.4737 8.12628 2.37928 10.0826 6.94914 
1.35667 9.30893 7.47414 5.24972 9.74969 0.896966 3.67304 9.92191 0.535109 
2.36819 10.0404 2.67454 2.50331 9.5793 1.27377 1.26187 9.41713 1.98886 
0.953936 9.62314 4.88413 2.45769 9.96021 4.2611 3.94633 10.1734 3.25273 
2.45406 9.99762 5.50829 3.95462 10.155 6.44137 5.54911 10.3179 2.54234 
6.85239 9.86644 1.7925 7.92962 9.22702 1.00428 8.10688 9.52477 2.58725 
8.23806 9.77298 4.12682 5.45284 10.2122 7.06295 6.74896 9.72067 7.53479 
8.17691 9.66438 5.74006 8.2072 9.59381 7.01888 8.03699 9.31919 8.27621 
7.12735 9.99497 4.90569 5.48222 10.2553 5.57529 5.55238 10.2437 4.19856 
1.67991 3.86558 -1.44384 7.65113 3.87183 -1.32595 5.15775 8.88929 -1.22393 
7.87675 8.50729 -0.692019 1.86214 8.55985 -0.684679 8.59501 6.53238 -0.703206 
8.48205 1.4725 -0.310067 6.52451 1.12001 -1.21186 0.47033 6.57896 -1.00853 
3.49048 1.1383 -1.04058 0.922167 1.45971 -0.267522 4.93579 3.96484 -1.89156 
3.19706 6.8257 -1.84296 6.62788 6.83318 -1.68616 8.48321 8.2101 -0.063911 
6.56349 8.72456 -1.0747 3.39875 8.82444 -1.02543 0.738461 8.35665 -0.244131 
8.62202 5.18913 -1.06644 8.67256 3.67961 -1.09394 8.16474 2.54955 -1.00734 
7.06283 2.44914 -1.36076 7.60555 1.2891 -0.623474 0.660384 5.13673 -1.18171 
0.636521 3.67523 -0.874201 2.57195 2.40992 -1.33901 1.18286 2.54597 -1.17245 
1.95101 1.33275 -0.862465 5.07395 1.03775 -1.10009 4.14423 2.39257 -1.7375 
3.23858 3.86894 -1.87018 5.67437 2.49271 -1.5789 6.55343 3.96824 -1.89654 
2.41598 5.33029 -1.88805 1.76104 6.68387 -1.28471 1.19617 7.8299 -0.636794 
2.58814 8.07296 -1.15182 4.2333 8.12544 -1.31919 7.14379 5.36387 -1.56114 
7.80019 6.60883 -1.37469 5.85528 8.15784 -1.39549 7.15448 7.98798 -1.04861 
8.46754 7.84509 -0.745038 4.94225 6.95611 -1.96819 5.75982 5.50328 -1.91519 
4.08246 5.43916 -1.92558 1.81707 3.90544 10.0025 7.62778 3.85978 10.211 
5.13461 8.61348 9.8566 7.83935 8.36267 9.44897 1.9835 8.34069 9.51708 
8.5037 6.56126 9.43303 8.41696 1.54645 9.37141 6.41317 1.33627 9.70309 
0.782447 6.5242 9.46931 3.51846 1.15453 9.99693 0.992297 1.49104 9.34443 
4.88659 4.02029 10.4215 3.30217 6.76526 10.2639 6.53256 6.71874 10.1087 
8.45325 8.10298 8.97812 6.46173 8.50301 9.74013 3.45313 8.65634 9.82039 
0.95771 8.2841 9.27181 8.40832 5.20027 9.85972 8.3819 3.66213 9.51964 
8.06389 2.59545 9.73563 7.01076 2.56366 10.0191 7.57203 1.24998 9.67486 
0.758999 5.22933 9.79014 0.768948 3.68026 9.76141 2.69336 2.51804 10.0024 
1.31212 2.63166 9.95405 2.03166 1.43756 9.69829 5.02747 1.08043 9.92145 
4.12395 2.57086 10.2162 3.29226 3.97822 10.4962 5.69172 2.47719 10.3433 
6.35972 4.02136 10.1989 2.59 5.32816 10.1216 1.88775 6.63538 9.99253 
1.26617 7.69942 9.53291 2.76518 7.90115 9.68188 4.25731 7.91319 9.84737 
7.06411 5.32487 10.0278 7.72612 6.6258 10.0715 5.87024 7.91344 9.78427 
7.15423 7.92324 9.68134 8.32151 7.80423 9.51006 4.9633 6.84494 10.1174 
5.73402 5.5165 10.5357 4.11472 5.41989 10.3153 
POLYGONS 709 2124
OFFSETS vtktypeint64
0 3 6 9 12 15 18 21 24 
27 30 33 36 39 42 45 48 51 
54 57 60 63 66 69 72 75 78 
81 84 87 90 93 96 99 102 105 
108 111 114 117 120 123 126 129 132 
135 138 141 144 147 150 153 156 159 
162 165 168 171 174 177 180 183 186 
189 192 195 198 201 204 207 210 213 
216 219 222 225 228 231 234 237 240 
243 246 249 252 255 258 261 264 267 
270 273 276 279 282 285 288 291 294 
297 300 303 306 309 312 315 318 321 
324 327 330 333 336 339 342 345 348 
351 354 357 360 363 366 369 372 375 
378 381 384 387 390 393 396 399 402 
405 408 411 414 417 420 423 426 429 
432 435 438 441 444 447 450 453 456 
459 462 465 468 471 474 477 480 483 
486 489 492 495 498 501 504 507 510 
513 516 519 522 525 528 531 534 537 
540 543 546 549 552 555 558 561 564 
567 570 573 576 579 582 585 588 591 
594 597 600 603 606 609 612 615 618 
621 624 627 630 633 636 639 642 645 
648 651 654 657 660 663 666 669 672 
675 678 681 684 687 690 693 696 699 
[...]
CELL_DATA 708
SCALARS scalars double
LOOKUP_TABLE default
-3.8071368832 -7.9892047167 -4.0786000287 -8.7361479285 -5.6475903943 -8.6440086672 -8.5411043073 -5.3184747928 -8.6481103003 
-5.5759946699 -9.1549418701 -5.7251067819 -9.2064355313 -4.03947207 2.9943960781 3.0255380508 0.58033386258 0.084303021395 
0.85428773877 -0.55322918464 3.2200323932 5.6345800638 5.5471326341 5.3481899743 4.011928907 6.0175068489 6.4436970133 
6.4456602686 6.4685962406 5.8791552657 1.0373783253 5.1747630165 0.59111198177 -1.3297124913 -2.8875641629 -0.19068686856 
0.66648509822 1.5654170432 -1.2436177422 3.6900793663 5.8585961841 3.8945907591 4.4694655225 6.9721499039 8.3730621652 
8.5829031979 6.9995947212 6.3544316526 2.9163442871 4.8629760892 5.8482339203 1.2638506253 3.983002166 5.0307361182 
7.1809081661 7.1427571094 4.802761986 6.7775866044 7.2424171571 2.5170964257 3.6118390786 3.4237200743 5.1456422983 
2.1570303195 2.5364746483 2.4530352046 3.5205939927 5.8818984039 4.6178927435 4.7818816732 -0.085242066557 0.023556130394 
-0.33700160895 0.34564285838 -4.0483731043 -2.4960324329 -4.7011909977 -2.6918133025 0.48553880658 -4.8801367342 -5.072445301 
-1.5557887947 -0.060920534628 -2.3974786655 -2.4890022384 -2.8272620962 0.2016947341 -0.81220499682 -0.95199732188 -0.42511518164 
-2.259192862 -6.1584287649 -5.5725389117 -1.4854513625 -2.4523447835 -5.8897948458 -0.260900082 -1.8874011255 0.5020027691 
-2.2265374579 -2.2148801779 -2.561375828 -2.0522738919 -1.8653063971 -2.3669714278 -2.6250842199 -0.6395060091 0.62364019302 
0.76141352409 0.53826735901 -0.012113643838 0.1765496813 0.39486645753 -0.12167722533 -0.25833000769 -0.41350963076 -0.9876307061 
-0.13297617904 -4.0584049072 -7.6797522738 -1.9167329879 -6.9659791567 -2.3228396278 -6.389985202 -6.9445772526 -2.3092500714 
-5.7672068374 -3.5000978774 -2.623986058 -1.9932787279 -2.7873544906 -5.6537925127 1.703818207 2.104079198 -1.3397975903 
-1.7703925094 0.45106721171 0.50381703111 2.962485126 4.0249233402 3.1434893817 2.3425936694 0.034343941358 4.6197080884 
5.9695741048 1.2096176825 2.631523057 4.0025291291 0.28441893032 5.6582177665 -0.46104947452 0.051880032317 -2.3878727329 
2.9762204637 0.24385483701 -1.0302914952 2.9823845047 1.875970515 0.68439865859 4.6681619712 1.6907827806 6.3722128636 
3.0576363035 1.6279657052 6.4352175906 7.3203656712 5.5272562789 -0.85333117194 -1.6012899916 -0.22792295109 -0.91697143434 
5.4045184057 2.9611249998 3.4599497799 1.1135473501 3.4137421493 2.9898159763 3.2410438831 1.4121311914 3.1964598109 
4.30741187 0.0064441213962 2.026761121 0.81755230139 0.60028170729 5.060513446 3.1729902576 4.3831447215 0.95524474724 
-0.65659590269 -0.81287197073 -1.0342429447 -0.67538234789 -6.6914364151 -2.0647566435 -2.5685436698 -3.8313378132 -3.3451920422 
-2.352331869 0.1539508763 -2.6436725468 -1.3503330951 -1.5908025789 -1.2247658071 -1.3464257509 0.1572325422 -1.3941662461 
0.74260707281 -1.7806739916 -2.7454998803 -3.1442976146 2.8127480723 -0.12542460023 -4.3409158867 0.59243257384 4.5781062372 
5.1664297007 -0.26718662896 -2.4658110954 -2.8502179986 2.0468333053 -1.628396847 -2.4216175235 -2.1188893171 -1.1353124426 
-0.76055037852 1.9188243443 0.83827462 0.60091205742 0.12492744393 0.89079999935 -0.14750480944 1.1567877898 0.10088293261 
-2.0457356927 -0.96571611176 -3.027431807 -5.8980252986 -5.2939273688 -3.4749644006 -6.0829190612 -2.3306547127 -2.3779827367 
-7.2921809211 -4.7363697489 -7.4429655456 -7.6383530066 -6.6991456329 -3.1439168371 -3.1702808031 -5.8498063287 -8.9804694506 
-6.1587428214 -5.153025244 -6.3280744447 -5.3099478743 -6.5933463339 -8.7088732545 -6.4205290087 -9.1012725481 -8.5369713956 
-8.557906577 -6.5239909811 -7.0461591413 -5.7084395402 -8.1836947901 -9.0219056074 -6.6474018644 -6.6270017751 -7.3064281146 
-7.5577279268 -7.5812334419 -8.9748902937 -7.748983346 -7.7464141224 -8.3133238977 -8.8846600049 -9.227593329 -8.4244459424 
-8.9239454062 -8.9252542671 -6.8999727073 -7.1191875999 -7.3092611487 -7.0382054932 -8.8243449502 -8.1888467498 -8.8539136072 
-8.0419324572 -7.5928294865 -7.9768961559 -8.5958792409 -8.5725959795 -9.1225864102 -8.852782911 -8.4470097523 -9.7641863334 
-9.8081735178 -9.8699517377 -9.4819651406 -9.548121857 -8.7469139252 -9.6422158894 -9.5642522751 -9.5206835461 -9.1793475484 
-9.7801331189 -9.1679123883 -8.2199849395 -9.652860859 -9.1602625419 -6.6266501359 -7.9006333241 -9.3104878897 -6.3738104975 
-6.4931503059 -6.3618246441 -9.578329635 -7.811630989 -9.3089293221 -8.1714544646 -8.7953240846 -8.6752392987 -9.352158694 
-8.5452762285 -8.6362843159 -9.1507800259 -7.4198005248 -7.0400533304 -9.5732506876 -5.7816859537 -6.576325272 -8.4780528358 
-5.560983352 -5.8693234666 -7.8906378424 -9.0133214512 -7.7139266434 -9.9729485872 -9.1556592324 -9.3244249041 -9.0205428333 
-9.9280874363 -8.7900019899 -9.8898296019 -9.8719193219 -9.7827415342 -9.8518090723 -9.7376378823 -9.8381681168 -9.8697433255 
-9.7981659151 -9.8268964837 -9.9120535597 8.0129157611 9.4073497975 7.5227828241 8.119221001 8.677091121 9.0110274521 
9.3647768572 7.6783922122 8.1491485011 6.9422907336 5.9299368827 6.6133997245 9.4281594698 9.5610332988 7.7993353237 
9.754688991 6.7853532459 5.5075772935 7.7549929342 5.6395930036 7.8536315459 8.7137743126 9.3946923141 8.2961443915 
8.0158845735 8.8752729134 8.5080910096 7.6422991182 8.4938130819 6.4075051699 9.3986940409 8.8218085768 8.1386154684 
6.6324320966 7.6173599519 7.5719324073 9.9042891203 8.7197772655 8.8820605822 8.1255752103 9.4039765922 8.9754586695 
9.6965356839 8.958936582 8.6842161531 7.002163945 6.122475666 5.8486259657 7.5640953728 8.8128577123 9.3561910392 
9.6031430054 8.4167579817 7.1423128173 7.4992913695 8.4800896547 8.7200100888 9.4244354896 8.7040464284 8.3116758635 
9.8906221671 9.6261331201 9.9296897854 9.2294537409 9.6637176549 9.8929294896 9.9589454414 9.6034889006 9.5566879544 
9.6646266189 9.7264167721 9.465359559 9.7892627719 9.4542027076 9.30668697 9.3587861694 8.4418996683 9.7126922663 
6.3936453227 7.0249512367 7.9748929735 6.814196161 9.5408165632 9.647265041 9.0098276786 9.005874698 9.3168760807 
9.3883300391 9.8620565606 9.0239094094 9.94713362 8.5565300482 6.2894714675 7.9726968542 5.6438953042 3.8609698297 
4.6545924657 9.4693578086 3.8116547447 9.6525496192 9.9477284109 9.586098704 7.2963562339 9.6954546061 9.8679092994 
9.6658125629 9.3953592413 9.8572061202 9.8580590183 9.9837248282 9.5202451906 9.8825872371 9.7886154193 9.9654226718 
9.9433689462 9.7230193113 9.5033678464 9.8773294313 5.7282390844 2.8497009971 4.92493961 9.4288733048 6.2324540801 
9.7451955472 8.7266743414 6.2941400583 9.4204904848 7.0596020214 8.546366859 5.7041142049 3.0220241917 9.1291781908 
5.3165550552 0.25307715992 0.38040724858 0.8478898335 1.9767358303 -0.13442819694 -1.0388921538 -1.0609892985 -4.202095095 
-2.9120809876 -4.0096846509 -4.4576467247 -4.0268254891 -3.6363296215 -3.3900511198 -2.1534758981 -1.5961556817 -2.8006993217 
-3.340060136 -5.8075715352 1.174152432 5.3041534909 -1.7724933719 -0.3385104382 1.5655226054 -1.6418297805 -1.5161614839 
-3.2682003448 -4.9020163743 -3.2966819682 -5.2831128693 -2.5222312304 -4.0754408635 -3.0112182341 -5.274550232 -5.5747425747 
-4.9760720141 -0.00014753764439 -0.64746129606 -1.0183707509 -4.5496176214 -6.0268287425 -6.529824154 -3.7757094905 -4.5811836085 
-5.2596222381 -2.2495703106 -0.93906583073 -2.3272098597 -1.690253465 -2.0898830629 -1.6198920145 -2.8730996845 -1.5248419781 
-2.9074276273 -4.5967049 -3.5444838804 -0.99193821252 0.88411183204 2.2160969731 2.1399535773 6.2957554356 5.3802547513 
4.4242113387 -2.9798978275 6.1239761842 6.3161063545 2.7503650112 2.8520708802 3.0486948204 3.9423945643 3.0803053024 
-0.43338232715 0.08491463532 2.1204355246 -0.23832720984 3.6074846289 7.1787299781 6.5313025692 1.8826092712 0.40678549762 
3.97654114 2.9302538168 1.3034377571 5.9803140889 0.38562579358 3.51181168 3.3082279761 1.8276454746 3.0925329732 
4.3747791478 4.608952934 0.047538251745 0.17475592362 -0.13724661477 1.2146781527 0.4333714992 -0.29386417109 -1.5811192739 
-0.24004427367 -0.19063182965 0.13100614372 0.59171775288 -0.32281480044 4.637323757 0.96882452658 5.1217517409 7.9685835316 
3.6750172097 8.4164417185 7.4500230693 4.1666667488 8.8658763929 4.8023721334 7.35496889 4.6147077652 3.3851886482 
8.9027521115 3.423087437 -1.7639855815 -2.0032132869 1.4136966329 2.0185251741 0.10097478894 0.44204917985 -2.6065410016 
-1.828113287 -2.515313744 -1.3866202765 -4.0294116995 -5.1753168786 -4.4912886372 -4.6148813111 -4.1237644199 -0.48782433092 
-1.6739063159 0.50128305577 1.5904099839 1.1412183204 0.97723949223 -0.19504903963 2.2425300554 -0.54916597402 -0.18647080372 
-0.23373195655 -1.3704618361 -3.7682885472 -2.3994817768 -5.8976140352 -2.0752150297 -3.5385475974 -3.0740239131 -3.9987902339 
-4.9855450251 -3.5894911868 0.56370545841 -0.54773042841 0.55704038596 -4.202757668 -3.4734934547 -3.2030518499 -0.91009515723 
-5.1752707941 -5.1549741737 -1.9144848643 -1.6611982892 -2.6828229893 -3.5191437797 0.27798450937 -1.3404860191 -0.12837511916 
-0.95205795817 -3.7328822948 -1.6988679853 -2.4707858536 0.14845084373 2.2393995506 -0.040796006769 0.013980407147 5.4470759294 
5.7870603799 4.1429762471 -0.43146459362 3.5554268421 4.8674575798 -0.82214820392 1.568179226 3.6652020186 1.3078725179 
3.2445740358 1.7502782015 -0.47516411037 1.9106158243 -0.91850032681 2.993123484 4.1024934244 5.5332062366 -0.055860903936 
0.3671034418 3.4051829871 2.4715921581 2.1324915127 6.4989880477 0.455173014 3.0917517869 3.520716985 -0.62041446468 
2.7614514428 2.879548306 2.6821116169 0.8588263542 1.2663031122 -1.5815167801 -0.65129610894 -0.36852600901 0.99672592811 
0.95057571153 1.9899876442 0.00777010195 0.88245513146 3.1639559236 2.1998705256 
