# vtk DataFile Version 5.1
vtk output
ASCII
DATASET POLYDATA
POINTS 356 float
0.501503 0.583256 0.289071 0.643536 0.649356 8.73958 0.727009 8.44344 0.348587 
0.941697 8.33892 8.63123 8.5887 0.843666 0.360309 8.66807 0.824305 8.92344 
8.71093 8.26059 0.456251 8.50151 8.22645 8.49349 0.0570747 0.312227 1.35221 
-0.356564 -0.0290362 2.56275 -0.51691 -0.14678 4.12059 -0.522729 -0.287363 5.70251 
-0.430556 -0.0980646 7.17085 0.136291 0.44865 8.03051 0.00590804 1.32956 0.260272 
-0.165572 2.42936 -0.564923 -0.253948 4.082 -0.272993 -0.354245 5.7115 -0.340148 
-0.186767 7.06906 -0.0384421 0.545934 7.88392 0.0180948 0.52641 8.61413 1.35267 
0.00634085 8.73844 2.67685 -0.0808988 8.8328 4.18693 -0.0548647 8.98763 5.56402 
0.219792 8.71946 6.90643 0.411336 8.6841 8.00599 0.25405 1.3357 8.91208 
0.0708797 2.54862 9.40537 -0.225922 4.16183 9.23971 -0.128279 5.77398 9.16842 
-0.0384058 7.12163 9.06314 0.659419 7.94368 8.88335 9.03513 0.429206 1.1174 
9.39573 -0.132544 2.43341 9.57842 -0.326972 4.02812 9.38219 -0.258339 5.68671 
9.20466 0.0793655 7.08816 9.00521 0.400422 8.21895 8.98098 1.50494 0.285121 
8.92465 2.51046 -0.266092 9.09185 4.02868 -0.22992 9.30889 5.73951 -0.21712 
9.29539 7.02543 0.0398247 8.72803 7.88538 0.156596 8.72588 8.58483 1.27535 
8.85702 8.72211 2.56228 9.22377 8.91318 4.16336 9.11915 8.95842 5.57551 
8.93549 8.74786 6.87802 8.75445 8.53183 7.99244 8.8787 1.41214 8.86754 
8.9287 2.50026 9.18479 9.19185 3.99301 9.12714 9.00159 5.63073 9.05347 
9.07135 6.94439 8.89708 8.60325 7.72923 8.75082 1.50652 0.544334 -0.101834 
2.64259 -0.120325 -0.158834 4.41014 -0.0985262 -0.500223 5.86688 0.0160335 -0.503345 
7.1205 0.13439 -0.335537 8.10679 0.568691 -0.0173 1.44104 0.685297 9.0897 
2.70787 0.1474 9.14634 4.36249 0.0643174 9.36926 5.93473 0.111022 9.3383 
7.00831 0.484267 9.10611 8.06576 0.584246 9.07263 1.50351 8.51096 -0.0794795 
2.47761 9.18359 -0.277267 4.35712 9.16917 -0.481134 5.8605 8.99841 -0.447196 
7.13384 8.81609 -0.347506 8.09783 8.65829 -0.0458392 1.53016 8.5429 9.12399 
2.64408 8.91735 9.07827 4.43712 8.85963 9.11474 5.86524 8.97915 9.35578 
7.15099 8.7247 9.36586 8.07755 8.53666 8.96285 -1.2541 0.152826 4.88814 
-1.51646 6.01464 1.68175 -1.39473 6.04735 7.61473 -0.631882 0.631687 7.72004 
-0.912038 0.45479 1.70069 -0.595873 3.20631 8.45261 0.114299 7.91689 8.41654 
-0.758682 8.11553 6.34584 -0.898136 3.19511 0.539895 -0.777651 8.01938 3.35046 
-0.124627 7.9495 0.652542 -1.79101 5.85677 4.89147 -1.81612 2.9527 3.1445 
-1.71083 2.99505 6.46023 -0.0480527 0.827991 8.64725 -0.892624 0.398528 6.39288 
-1.12339 0.199898 3.26879 -0.198584 0.619595 0.510311 -1.23353 4.8481 8.43883 
-0.574613 6.13492 8.36889 -0.695821 7.11348 8.01121 -1.04919 7.07556 6.89182 
-0.405473 7.96276 7.47885 -1.16302 4.761 0.670316 -0.77485 6.09062 0.725099 
-1.27599 7.12393 2.54097 -0.842156 7.08893 1.23511 -0.528077 8.07524 1.91705 
-0.912429 8.0179 4.90905 -1.49825 7.14371 4.16904 -1.72727 5.9779 3.24046 
-1.45971 7.15101 5.66465 -1.76627 5.9877 6.41026 -1.82122 4.53481 2.52462 
-1.46986 3.13284 1.75493 -0.729742 1.37666 0.968365 -1.28197 1.10224 2.56687 
-1.42064 0.989563 4.08677 -1.54044 4.56078 6.93841 -1.52753 3.06698 7.6519 
-1.37096 0.944565 5.69588 -1.23854 1.03014 7.10896 -0.662256 1.42396 8.38774 
-1.89708 2.87676 4.90855 -1.98814 4.48817 5.63337 -2.01515 4.481 4.08951 
9.64227 0.40959 4.99747 10.0901 5.95447 1.796 9.8619 5.8714 7.42178 
9.31039 0.784896 7.74194 9.69848 0.744263 1.65295 9.31068 3.17713 8.38992 
9.01622 7.74944 8.35418 9.59019 8.02733 6.21801 9.73129 3.16049 0.553511 
9.69226 8.10902 3.35708 9.14751 7.82914 0.708133 9.98426 5.66307 4.8115 
10.0878 2.91173 3.29722 10.126 2.98324 6.38215 8.8893 1.09732 8.44059 
9.6926 0.577269 6.23971 9.8028 0.550315 3.29496 9.30764 0.946765 0.570541 
9.74281 4.62105 8.29308 9.69258 6.05343 8.44253 9.55157 6.97608 8.00236 
9.65493 6.98947 6.85673 9.37533 7.90932 7.48244 9.7602 4.64392 0.752854 
9.46902 6.00591 0.816562 9.76769 6.9418 2.62716 9.68445 7.07588 1.29866 
9.53992 7.93736 1.90721 9.52212 7.88857 4.84142 10.1758 6.97021 4.12262 
10.1426 5.81488 3.28006 10.018 6.92911 5.57969 10.1574 5.82159 6.31045 
9.94826 4.40904 2.53479 9.9035 3.09404 1.81585 9.50221 1.60445 1.08913 
9.84788 1.38138 2.59187 9.97311 1.21728 4.10103 9.88695 4.48803 6.97276 
9.99667 3.05211 7.53101 10.0392 1.24784 5.66216 9.564 1.2917 7.0379 
9.47572 1.57448 8.232 9.97884 2.87384 4.89687 10.2718 4.3753 5.62784 
10.3381 4.41857 4.11835 3.91373 -1.32735 1.57937 3.8787 -1.38871 7.78582 
8.81434 -0.72179 4.88747 8.62928 -0.359305 7.87618 8.66477 -0.239036 1.51545 
6.64012 -0.516247 8.72586 1.4045 -0.1515 8.61704 1.284 -0.886171 6.3683 
6.61656 -0.610243 0.4261 1.15052 -1.0039 3.31762 1.33011 -0.262519 0.492185 
4.03889 -1.99539 4.93467 6.78036 -1.56224 3.16273 6.74499 -1.59522 6.57667 
8.42778 0.316671 8.59075 8.95786 -0.784976 6.43034 8.84543 -0.740317 3.28519 
8.59843 0.0296447 0.54075 5.29715 -0.793385 8.43731 3.85332 -0.774896 8.66185 
2.62899 -0.671491 8.08365 2.5732 -1.37355 7.07178 1.32636 -0.708154 7.63015 
5.29566 -1.07532 0.669233 3.89333 -0.789807 0.452819 2.56968 -1.40476 2.5145 
2.61328 -1.03858 1.05787 1.18652 -0.866228 1.75753 1.095 -1.26275 4.88478 
2.61049 -1.60606 4.08523 4.02281 -1.72408 3.2043 2.56241 -1.69029 5.72589 
4.01481 -1.73697 6.55586 5.40006 -1.73827 2.37369 6.72403 -1.18857 1.62888 
7.9491 -0.519495 0.683612 8.23118 -1.09695 2.3825 8.33604 -1.28526 4.04619 
5.34542 -1.54983 7.15775 6.68875 -1.22928 7.79837 8.25612 -1.21901 5.76615 
8.15041 -0.758726 7.09812 7.89916 -0.194075 8.37707 6.87855 -1.74367 4.89035 
5.44185 -1.94957 5.72862 5.45468 -1.92376 4.03211 3.84604 9.93068 1.96301 
3.85207 10.023 7.51109 8.49892 9.13204 4.80273 8.61479 9.20958 7.55043 
8.62248 9.33466 1.82272 6.69137 9.47524 8.53891 1.38363 8.99882 8.38302 
1.06726 9.50357 6.31991 6.67652 9.68212 0.49294 0.98972 9.68427 3.29097 
1.25374 9.17446 0.74006 3.96485 10.4079 4.88482 6.78218 10.0497 3.21235 
6.75286 9.77515 6.37768 8.60501 8.89958 8.56472 8.56992 9.16197 6.44964 
8.7015 9.33364 3.35227 8.42859 8.69057 0.649547 5.23542 9.6393 8.3253 
3.67668 9.65906 8.64875 2.55643 9.4979 8.04406 2.353 9.84182 6.87564 
1.29525 9.28838 7.44632 5.21584 9.83267 0.877751 3.67652 9.89124 0.55859 
2.36336 10.0301 2.70255 2.47741 9.60711 1.2232 1.21701 9.35112 2.00283 
0.932586 9.56941 4.8815 2.39818 9.96189 4.25518 3.89819 10.3376 3.21888 
2.40354 10.2797 5.50762 3.84801 10.0366 6.45131 5.47965 10.1198 2.59811 
6.7677 9.66738 1.81519 7.84492 9.17653 1.03125 7.95455 9.47772 2.59149 
8.1053 9.71533 4.12827 5.3993 10.1095 6.93114 6.66607 9.73532 7.4954 
8.17723 9.6909 5.6464 8.02929 9.4876 6.94248 7.85226 8.97262 8.14044 
7.03013 9.96939 4.86071 5.41654 10.3316 5.58301 5.46634 10.0182 4.18435 
1.69236 3.82575 -1.43825 7.56026 3.81722 -1.40584 5.09855 8.85576 -1.26245 
7.85271 8.49172 -0.793447 1.80002 8.51702 -0.83546 8.45624 6.46658 -0.591276 
8.57751 1.45882 -0.515436 6.48445 1.03322 -1.12675 0.671516 6.49633 -0.868003 
3.48449 1.19508 -1.05717 0.792618 1.29188 -0.556706 4.88928 3.91049 -2.1118 
3.17869 6.71147 -1.82013 6.58762 6.73379 -1.67413 8.50583 8.14783 -0.0161883 
6.53687 8.70367 -1.10122 3.44181 8.69134 -0.972285 0.799811 8.36697 -0.286259 
8.55371 5.09717 -1.14074 8.61467 3.63487 -1.1499 8.0908 2.52281 -1.05144 
6.97936 2.42468 -1.54064 7.53161 1.26999 -0.776688 0.660065 5.15293 -1.18534 
0.559109 3.67095 -1.18595 2.53737 2.36713 -1.56433 1.30274 2.61052 -0.986383 
1.90409 1.24677 -1.03253 5.01528 0.977119 -1.3236 4.13688 2.37169 -1.8573 
3.2486 3.85915 -1.90377 5.68315 2.41101 -1.5815 6.45414 3.96924 -1.96024 
2.51686 5.25238 -1.80938 1.76839 6.52247 -1.40357 1.0563 7.78172 -0.767752 
2.65859 7.95867 -1.25462 4.25417 8.1143 -1.38644 7.09493 5.32881 -1.66378 
7.79138 6.64105 -1.39342 5.81933 8.04071 -1.33649 7.07311 7.90195 -0.994942 
8.41658 7.8029 -0.710122 4.95394 6.80576 -1.90374 5.70146 5.42546 -1.99717 
4.08002 5.40292 -1.89636 1.88562 3.86247 10.1321 7.53942 3.85759 10.1141 
5.12642 8.55268 9.81179 7.70385 8.22718 9.39942 2.05159 8.29144 9.47799 
8.44613 6.50606 9.4353 8.26882 1.62709 9.10001 6.37651 1.25533 9.95536 
0.83068 6.47361 9.43411 3.474 1.14859 9.94285 1.00363 1.53317 9.34124 
4.90224 3.993 10.3049 3.2244 6.6802 10.213 6.50745 6.70851 10.046 
8.42023 8.01846 8.9298 6.42934 8.31389 9.43166 3.45789 8.60596 9.6981 
1.0349 8.24594 9.28528 8.3062 5.16441 9.83824 8.33574 3.61787 9.48446 
8.01276 2.56278 9.81044 6.86956 2.59477 9.79099 7.54242 1.30601 9.66055 
0.771775 5.13742 9.91448 0.831981 3.69533 9.51444 2.7638 2.46163 9.9465 
1.31335 2.586 9.77578 2.06515 1.4045 9.63676 5.02175 1.16891 9.80384 
4.13993 2.53533 10.1919 3.21482 3.91169 10.465 5.61456 2.47804 10.2962 
6.31312 3.97914 10.4661 2.66207 5.24563 10.007 1.89916 6.53622 9.94766 
1.23656 7.65061 9.56254 2.7666 7.77977 9.77788 4.25195 7.8486 9.68921 
6.97222 5.28456 9.98215 7.73441 6.56558 9.91678 5.78637 7.85558 10.024 
7.12983 7.86765 9.87787 8.12674 7.65648 9.3374 4.87407 6.78478 10.1856 
5.61632 5.49555 10.4125 4.08557 5.33993 10.462 
POLYGONS 709 2124
OFFSETS vtktypeint64
0 3 6 9 12 15 18 21 24 
27 30 33 36 39 42 45 48 51 
54 57 60 63 66 69 72 75 78 
81 84 87 90 93 96 99 102 105 
108 111 114 117 120 123 126 129 132 
135 138 141 144 147 150 153 156 159 
162 165 168 171 174 177 180 183 186 
189 192 195 198 201 204 207 210 213 
216 219 222 225 228 231 234 237 240 
243 246 249 252 255 258 261 264 267 
270 273 276 279 282 285 288 291 294 
297 300 303 306 309 312 315 318 321 
324 327 330 333 336 339 342 345 348 
351 354 357 360 363 366 369 372 375 
378 381 384 387 390 393 396 399 402 
405 408 411 414 417 420 423 426 429 
432 435 438 441 444 447 450 453 456 
459 462 465 468 471 474 477 480 483 
486 489 492 495 498 501 504 507 510 
513 516 519 522 525 528 531 534 537 
540 543 546 549 552 555 558 561 564 
567 570 573 576 579 582 585 588 591 
594 597 600 603 606 609 612 615 618 
621 624 627 630 633 636 639 642 645 
648 651 654 657 660 663 666 669 672 
675 678 681 684 687 690 693 696 699 
702 705 708 711 714 717 720 723 726 
[...]
CELL_DATA 708
SCALARS scalars double
LOOKUP_TABLE default
-5.9446760538 -8.5290259438 -5.7422334892 -5.6481629641 -5.1858061795 -8.911929602 -6.1720870465 -5.8923412292 -9.208945714 
-6.2709088244 -9.0399838807 -5.8675890573 -9.428547389 -3.9129438606 3.6900909697 3.9674959516 -1.0218279425 -2.6819690453 
0.97150493539 0.71309594256 4.6304890876 5.2245462532 4.0751624914 4.5188507232 6.898871758 7.3057869071 6.9321150148 
5.5081694052 5.177091161 5.9051752943 1.7752482148 5.0907168714 0.88116197225 0.58944412773 -1.8683256939 2.5010311838 
-0.70266226598 -0.73163800476 2.6880923609 4.161464172 5.6358996725 4.7630043171 4.666311428 6.9700602151 7.9980886705 
7.9791940479 7.7987366893 6.9006892052 3.9176317157 2.4493048579 1.7237457042 2.0266527341 5.5012389969 5.3914618221 
6.4768620241 7.4056360399 5.6252621173 6.8534505715 6.8476238537 2.9890566003 2.0982079193 2.9189076833 4.0416967967 
2.5128494851 4.5733842415 4.2340682187 2.3448980567 5.6390359535 5.9485387019 5.4548591993 0.038207808382 -1.1601168526 
-1.0222537109 -0.49082537613 -5.369289201 -2.3741138868 -5.3773941222 -2.4505950954 -0.52818230415 -5.3283515273 -5.6522277266 
-2.5183713388 -0.83239266527 -1.9176896592 -1.8248173902 -2.2497509469 0.053207038378 0.6219391249 -2.3206268213 0.79921161687 
-2.0004375132 -5.6252782703 -5.1607307376 -5.710913381 0.093765588659 -6.628041529 -4.3196862985 -3.4973888829 -1.4603677404 
-0.033437445305 -1.8038241531 -2.4372960338 -1.7148767463 -2.0987905521 -2.2214947534 -2.5401762171 0.039041463469 -0.41315561017 
1.4450770949 -0.28975752042 -0.52007791304 1.750202374 1.2846815427 1.2264207099 1.5135270095 -0.98604760412 -1.1276115638 
-0.64369008024 -3.5984743477 0.15815324436 -2.5015438164 -4.6456573246 -4.0005141803 -2.464032035 -3.7741633351 -2.4763038709 
-3.6036702901 -2.9018818165 -6.1791495221 -3.6445820713 -7.6300425797 -2.1980194438 0.17856310439 -0.52551538481 -1.5252102363 
-2.3714256007 0.57013277547 1.185512476 2.2514985603 3.8502798141 1.7154368584 2.3304312072 4.6049936243 5.5966212098 
5.8053796529 4.9052568671 4.5402475987 4.762968982 2.0744627978 3.6009565991 3.4222298368 -0.65071154737 -3.0087367421 
2.0202231782 0.633054331 -1.0418256462 2.1378007591 3.298642763 1.3838079528 3.7155301727 1.9399249318 6.5797171512 
6.2417611089 6.100669087 7.1594403931 7.1940186714 3.9778717486 0.69558899439 -0.60341517156 0.43068068513 4.4355260073 
5.2770988354 4.0210393616 5.5000029949 2.2364954231 3.7214696862 3.155021591 3.1353788765 -0.96259186555 1.6420672578 
2.1716164635 0.46021381132 2.8993243078 2.8158003141 -0.89954533578 4.0454905506 4.7974944894 5.1996020611 -1.4891081667 
-0.011344078718 0.31590075688 0.21947883642 -2.3239907345 -2.8505927231 -2.8669144105 -1.1165642516 1.9377795574 -2.5452686617 
-2.5124994572 -1.3515425947 0.83489238164 -0.92829069516 -1.9202097667 -1.4070588643 -0.17798376934 1.1601028115 -1.8368205708 
1.131045426 -1.8175238228 -3.9711081245 -2.7573672657 -1.9743061942 0.45403410435 -1.9661486223 -2.8397324225 -3.0575351816 
-6.0165197661 0.19275581789 -2.6938027804 -2.7195705091 -4.0781284999 -0.091495569436 -0.35672855852 0.17021323543 0.46300085598 
-0.66673066924 1.3810189535 -0.55850038771 -0.31116326767 2.0850307189 -1.1296282074 -0.075700602583 2.4747344891 -1.9632649757 
-1.5001046376 -2.086505285 -5.3272960562 -6.2829989279 -6.118046822 -4.1404939337 -7.6129128009 -8.3446206894 -5.26423849 
-7.8298948019 -7.7861305231 -6.9942292599 -6.2174647152 -7.5939448981 -1.5455125702 -1.1190857302 -6.7411514893 -8.153543135 
-6.7730774053 -4.3962283688 -7.0300982999 -5.8857193091 -7.1761689515 -7.7258599827 -8.5632302371 -8.982489541 -8.043829156 
-9.2295396913 -6.3535963315 -6.1107430523 -7.1238020873 -4.6985661002 -7.8031140844 -7.8783346952 -7.3243774219 -4.5085365937 
-7.5599802367 -7.5904098196 -8.9715330393 -7.5919493488 -7.4453630408 -7.9009662048 -9.6253374346 -9.4379352427 -8.4177610944 
-9.414123227 -8.5949315437 -7.0190583888 -5.1235290163 -6.8395179917 -7.0223314578 -8.5581416041 -7.780511708 -9.0236701161 
-7.8993946588 -7.7504524191 -5.0909327369 -8.786358662 -9.2293618921 -9.379985374 -8.4531348712 -8.363567381 -9.6779872578 
-9.728585915 -9.7998858749 -8.7168168821 -9.8069204457 -9.5551485239 -9.6045729011 -9.7129040274 -8.7018479286 -9.3933894756 
-9.6681452276 -9.3131054276 -8.6997375594 -9.3716616374 -9.1420428473 -5.2657613399 -6.1246260866 -9.6233598299 -5.4755372471 
-7.6059738175 -7.7786106794 -7.6586786339 -6.7378047716 -9.5462307118 -8.865435474 -9.0946433767 -8.5211143667 -9.5298347325 
-7.9156969751 -8.6085240301 -8.6022857243 -7.5516847489 -7.8256516131 -9.0975572725 -4.4130281814 -7.0089322007 -9.0594885154 
-6.2787735672 -6.6090512261 -7.3395485874 -8.6716538537 -7.7680292362 -6.9656319625 -9.4986964347 -9.6471877147 -9.4373390811 
-9.5829319427 -9.6177496736 -9.8609756916 -9.6272133292 -9.7494045189 -9.8684009478 -9.6328632661 -9.9123307587 -9.9904602561 
-9.7491877317 -9.7473111757 -9.9090740879 5.578113203 -1.786388485 7.5354620314 7.5995846529 7.6620363194 9.5965709879 
3.2862216996 8.1241875612 5.2811698728 6.9982629977 2.2265577421 8.0383392283 6.1977366198 6.0814180742 8.6716785512 
9.4608124469 6.1096689709 7.7186655149 8.4669796642 5.0259267557 7.8069716215 9.1813069783 9.0434881178 9.0716378363 
8.9980089337 7.9206609719 8.5266981606 5.6258259894 8.6507133794 8.0258346513 9.280987267 8.4331853032 7.9542194844 
6.0428109452 7.2917325093 7.1972663801 9.9842983038 8.3130456772 8.6426263514 8.5334061455 9.5719408103 8.9041121751 
9.4957061296 8.9104652475 7.4406501058 7.3387875521 6.4272613399 6.5119757375 7.7829032874 7.7416880789 9.3728325671 
9.7311443638 9.0003132183 8.0164457206 5.7612898184 8.8278415113 7.927050004 9.7328394479 7.9655431762 8.3237140674 
9.4869150239 9.6447603367 9.7619491747 8.9462000168 9.7275381339 9.9200545154 9.521135395 9.5454861201 8.8293381627 
9.7039578901 9.1111237397 9.8625284218 9.9461587838 9.4929608352 9.5652392894 8.9236616533 5.4288361714 9.1824307061 
8.1969719296 6.9942568513 7.667919109 9.1720064262 9.8194197472 9.1548091645 9.1462738106 9.3833655337 9.4276964996 
9.6395997289 9.6807834984 9.3497240615 9.7487040277 7.6502193315 7.6120575267 7.5475951726 7.6592657748 8.3052240806 
9.1725474189 -1.7915756764 8.4170270705 8.7022581383 9.7885819073 8.5140196025 5.3385103752 9.794161925 9.7133626664 
9.7248199819 9.41401694 9.9861842613 9.7237654791 9.8234949157 9.9766875175 9.7214812243 9.5114061571 9.8485599181 
9.6556924917 9.9883486483 9.4151335522 9.693915975 5.6190213294 5.4495148085 3.8426760027 9.5103962144 5.509741801 
9.54810151 9.274478367 6.4561873566 7.7129735399 6.2585753639 7.8044427045 6.5527323412 3.8384847297 9.7767654547 
5.5085051867 0.16023787489 0.39646922321 1.7306842283 3.3374194922 -0.88822923518 -0.97420271792 -0.81967944842 -3.2461239113 
-3.8325168927 -3.6371026152 -4.5019932541 -4.6017571695 -5.9802989008 -5.8053501572 -1.8817899789 -1.8056686046 -0.53410576415 
-3.60311837 -5.053573487 2.4406648682 2.3658704772 0.15341463667 1.9461891309 -0.71480615815 0.50314430142 -1.8273024564 
-4.1579001032 -1.4320069632 -1.6634161448 -4.8476612591 -6.9156773155 -4.5602380916 -6.8311144446 -6.3767328997 -5.5008782098 
-2.1333083724 -2.9545766047 -3.2895674871 0.81865752321 -5.2918491637 -5.743636736 -5.8514288308 -4.9524886326 -5.1314592163 
-6.2382362198 -0.81958314089 -1.0364901081 -1.3680090883 -2.9578561082 -2.8274938578 -0.95054157843 -2.5150800029 -2.4392592104 
-2.3718876807 -4.6452143677 -2.5312179967 -0.64408490694 2.1072006117 1.2758521714 1.1071128174 6.0190298241 6.7346907217 
3.7110123716 0.89269696835 5.7794444035 6.0961457816 4.642099662 2.2421858864 2.8414695302 1.9841948218 2.8467032683 
-0.59727941299 0.76637820034 2.850167703 0.13651030643 3.9197627175 6.4036216368 5.7262064542 0.51584695844 -0.51057400241 
5.6527092356 0.5461416458 3.9091367224 4.6859595033 -0.34391949122 4.1287160697 4.0486853402 1.2319963545 3.2685548786 
3.3799604464 3.8915920207 0.78485490336 -0.15271044526 0.24112165113 0.98518417555 0.186546684 0.73528320895 -0.84398342571 
0.36580627433 1.0894014471 0.24868362884 1.4423088927 0.33680939038 3.4696241715 4.9303116167 5.0512360163 1.2799856735 
4.8366535536 8.3616725703 5.2409979795 3.996946779 9.0388238146 5.2525061335 6.4873719331 4.3159121921 6.4990840144 
8.6811396508 4.9318267219 -1.7131864719 -1.9119263833 0.59166114772 1.377441811 -0.34729910297 1.1367825121 -2.3629899764 
-3.2854401224 0.29199599332 -1.110155736 -6.3830385654 -5.932836802 -0.77530486002 -1.4509057003 -2.8147939503 0.47567488334 
-4.4037922015 0.80260304881 -0.34541788053 0.95368200382 0.28065860434 -2.5527929896 3.1807659502 0.71734070605 -2.639526373 
-2.1111932419 -1.2859102034 -2.9129961679 -1.9784437928 -5.4945051917 -4.0678041908 -4.1697549566 -4.268809343 -4.5391575299 
-4.6593450525 -3.0054004477 -0.15180795105 0.9988786549 0.58095418972 -3.9727214657 -4.5219649196 -5.4609816629 -0.94590475966 
-4.092362708 -3.8115858399 -2.6526001407 -1.2871248797 -2.9022283439 -0.24438503163 -0.59241364746 -3.5218666854 -2.7707845054 
-0.39619320307 -3.1661857061 -2.1780799602 -3.1930747836 1.207427412 3.2273441642 -0.66647602391 0.16467129266 5.6368911682 
4.994319939 3.8118224742 0.53489029606 4.38045362 4.9546197167 0.48353198362 3.247937515 2.7948598468 0.51945410027 
2.3904680445 1.3805098962 -0.10808579403 1.8381521159 -0.12418648177 0.86227502267 4.431444207 4.6895273413 7.5427342102 
2.1980451162 3.4377384256 2.8382438302 3.5027069114 0.92682533311 2.2313959075 0.82453848145 2.5781929086 0.94750558781 
0.74606765936 4.1735923307 3.135787584 0.58740258128 2.0128860152 -0.17085859653 1.8126664399 -0.17936643747 -0.57045633269 
2.2265398016 1.911414827 -0.90890694386 1.8547283873 2.2446887538 1.8080059092 
