# vtk DataFile Version 5.1
vtk output
ASCII
DATASET POLYDATA
POINTS 356 float
0.455517 0.524172 0.236555 0.61533 0.725477 8.73167 0.743726 8.4641 0.343183 
0.903842 8.35258 8.63873 8.76838 0.805742 0.222033 8.54129 0.921463 8.6884 
8.63844 8.2411 0.46144 8.60679 8.23312 8.54294 -0.038175 0.253369 1.34141 
-0.467008 -0.213792 2.5272 -0.669501 -0.408264 4.07206 -0.571224 -0.301658 5.70213 
-0.455331 0.0254806 7.08398 -0.0083336 0.239596 8.1689 0.154238 1.34486 0.31541 
-0.124111 2.42719 -0.458194 -0.403231 4.0414 -0.44891 -0.274732 5.73654 -0.281284 
-0.234855 7.07539 -0.0822569 0.595406 7.84029 0.0678431 0.449446 8.67074 1.33643 
0.0521017 8.72214 2.6514 -0.10525 8.91 4.17845 0.0098492 8.8135 5.56387 
0.196861 8.81793 6.91151 0.485485 8.6319 7.9701 0.308374 1.37313 8.73742 
0.166527 2.57256 9.37795 -0.22283 4.14571 9.21876 -0.0904347 5.76235 9.17107 
0.0757835 6.96881 8.87263 0.600991 7.85615 9.03607 8.98208 0.360966 1.10672 
9.31866 -0.0421075 2.45847 9.59983 -0.291404 4.07878 9.55878 -0.327067 5.6266 
9.17445 0.0946962 7.07864 8.89308 0.471303 8.22266 8.94856 1.46557 0.360059 
9.04345 2.46963 -0.397466 9.17216 3.99698 -0.294647 9.21042 5.74846 -0.24203 
9.26794 6.96039 0.0292365 8.69126 7.83941 0.151018 8.78536 8.57501 1.33109 
8.89287 8.80919 2.50052 8.99647 8.64064 4.09866 9.10432 8.78318 5.61273 
8.81454 8.85287 6.97132 8.72798 8.54762 7.89756 8.86246 1.53202 8.79667 
8.81695 2.52205 9.22574 9.23586 4.03486 9.09998 9.08047 5.68742 9.11962 
9.03068 6.93866 8.80393 8.71899 7.7741 8.91488 1.45099 0.532249 -0.0926927 
2.65207 -0.121417 -0.171338 4.3701 -0.0564289 -0.497544 5.80344 0.0429924 -0.491984 
7.05267 0.071876 -0.38526 8.02134 0.531232 0.071978 1.48123 0.588507 9.1238 
2.72806 0.194024 9.07729 4.34388 0.0849358 9.33566 5.90702 0.158426 9.3303 
7.08834 0.349586 9.16043 7.96934 0.684561 9.02646 1.50583 8.5126 -0.136454 
2.50425 9.08777 -0.235521 4.33074 9.14921 -0.530469 5.86006 9.17055 -0.579504 
7.13322 8.82442 -0.348282 8.12978 8.62116 -0.00832636 1.50794 8.51972 9.14548 
2.62018 8.9272 9.12343 4.32393 9.06282 9.41516 5.85871 8.92909 9.3954 
7.1509 8.83254 9.25767 8.05277 8.41159 8.87364 -1.14127 0.237407 4.90647 
-1.49393 6.00794 1.69681 -1.28623 5.94351 7.58155 -0.659319 0.634029 7.72994 
-0.690277 0.69489 1.80198 -0.587048 3.17019 8.47238 0.113728 7.92718 8.43123 
-0.790927 8.12615 6.31176 -0.798786 3.22387 0.562924 -0.887559 8.11417 3.38489 
-0.158365 7.90249 0.704545 -1.84345 5.89264 4.86435 -1.74338 2.96674 3.1928 
-1.90934 2.93853 6.4745 0.019573 0.943646 8.53745 -0.874852 0.478008 6.3946 
-0.99069 0.403778 3.32606 -0.3054 0.633892 0.471768 -1.14021 4.79064 8.36748 
-0.723115 6.15489 8.43449 -0.752289 7.15188 8.06721 -1.24702 7.12877 6.94132 
-0.379978 7.91342 7.40346 -1.25339 4.75676 0.677652 -0.769842 6.07804 0.676999 
-1.23037 7.07956 2.5506 -0.914923 7.04478 1.21414 -0.576177 7.90439 1.94998 
-0.877753 8.03183 4.88366 -1.46145 7.12983 4.16193 -1.67169 5.96887 3.25235 
-1.49091 7.12252 5.63623 -1.76327 6.0155 6.41803 -1.77596 4.53156 2.54315 
-1.63202 3.08484 1.70308 -0.748991 1.37858 0.924063 -1.38571 0.963008 2.50678 
-1.59054 0.890728 4.06561 -1.6845 4.54347 6.91846 -1.48329 3.07579 7.65386 
-1.53263 0.901349 5.6742 -1.15005 1.09775 7.02874 -0.733964 1.36169 8.42565 
-1.88526 2.9477 4.88591 -1.98949 4.50518 5.59095 -2.11857 4.50934 4.05748 
9.37637 0.574969 4.96413 9.99566 5.86175 1.84407 9.96923 5.85266 7.4288 
9.48455 0.738298 7.66107 9.6101 0.77252 1.72503 9.29606 3.07306 8.43307 
8.88267 7.65098 8.2032 9.55314 7.99312 6.28424 9.42891 3.17963 0.628832 
9.72798 8.01176 3.33851 9.10784 7.78229 0.708726 10.0405 5.70445 4.80383 
10.2579 2.89928 3.26776 10.1372 2.96557 6.34631 9.15413 1.10836 8.74082 
9.51507 0.58521 6.35339 9.68684 0.603348 3.20523 9.27872 0.98692 0.584575 
9.78042 4.60904 8.32661 9.32435 5.9801 8.25248 9.55618 6.98907 7.99332 
9.64406 6.92588 6.83315 9.39424 7.82086 7.41807 9.86807 4.68855 0.742867 
9.55282 6.04611 0.793784 9.70719 6.91915 2.62022 9.72833 7.03009 1.29489 
9.48788 7.90557 1.93665 9.63998 8.01429 4.8408 10.056 6.95803 4.11462 
10.2667 5.80815 3.27151 9.95872 6.92569 5.53549 10.1912 5.82996 6.30671 
9.94245 4.4091 2.5456 10.0371 3.0553 1.77541 9.53254 1.60625 1.05641 
9.77766 1.35192 2.57967 9.99754 1.17888 4.14882 9.88814 4.46943 6.92903 
9.9872 3.09622 7.49466 10.0004 1.22199 5.58188 9.66515 1.32905 7.03726 
9.2864 1.50416 8.03693 9.96252 2.8433 4.9013 10.266 4.39683 5.56058 
10.3269 4.40106 4.14945 3.88545 -1.43224 1.54662 3.92569 -1.40924 7.74066 
8.92308 -0.852671 4.88731 8.71183 -0.378818 7.78182 8.7863 -0.519301 1.5334 
6.58107 -0.589252 8.7106 1.40514 -0.119959 8.57884 1.25548 -0.981542 6.39552 
6.60128 -0.647246 0.396587 1.14117 -0.956141 3.29601 1.33049 -0.324031 0.510155 
4.05695 -1.93876 4.94655 6.82095 -1.71888 3.14687 6.74862 -1.48736 6.48031 
8.4158 0.29352 8.90776 8.77238 -0.612212 6.50797 8.88642 -0.752953 3.18828 
8.56986 0.148205 0.389917 5.25093 -0.833871 8.41276 3.83472 -0.719319 8.69421 
2.61435 -0.799737 8.15957 2.51579 -1.49577 7.096 1.37431 -0.577362 7.53548 
5.29709 -0.919829 0.741605 3.90004 -0.893284 0.40748 2.5218 -1.48005 2.491 
2.67667 -0.792709 1.14971 1.22395 -0.824988 1.75302 1.09406 -1.26846 4.91261 
2.54576 -1.81239 4.04812 4.02701 -1.72464 3.20189 2.60869 -1.62035 5.68646 
3.96607 -1.70136 6.54415 5.41379 -1.72401 2.37344 6.74994 -1.2212 1.59577 
7.9724 -0.406683 0.782654 8.14524 -1.02903 2.38178 8.32204 -1.31984 4.07815 
5.3774 -1.73187 7.12671 6.66905 -1.15395 7.78152 8.29363 -1.23559 5.68694 
8.13383 -0.973107 7.14101 7.87922 -0.144858 8.26703 6.75675 -1.63191 4.8828 
5.43383 -1.93514 5.74222 5.42626 -1.95307 4.02848 3.88009 9.93499 1.90441 
3.76469 10.0794 7.59083 8.76884 9.51886 4.79015 8.45247 9.07603 7.56715 
8.45222 9.16521 1.80161 6.57859 9.12494 8.45141 1.41825 8.80957 8.29239 
1.04494 9.4521 6.24736 6.61933 9.33772 0.549067 1.07724 9.53946 3.35176 
1.23232 9.19097 0.696853 3.93541 10.2725 4.88936 6.74904 10.0992 3.239 
6.78746 9.75088 6.34261 8.58639 8.93141 8.5462 8.66528 9.36987 6.25154 
8.82258 9.55562 3.4392 8.47417 8.79322 0.660441 5.25245 9.69302 8.29344 
3.74584 9.3815 8.45641 2.48094 9.6119 8.1426 2.42392 9.7441 6.85439 
1.27154 9.37273 7.4325 5.21976 9.86115 0.842157 3.66915 9.84093 0.559815 
2.3625 9.93062 2.67565 2.43042 9.68662 1.23995 1.18096 9.33837 1.96076 
1.02276 9.52402 4.88923 2.33333 9.94826 4.20251 3.82052 10.364 3.31027 
2.45253 10.0844 5.5623 3.87976 10.0962 6.33209 5.40754 10.0839 2.60074 
6.79814 9.89208 1.77227 7.84796 9.28949 1.01091 7.9321 9.43917 2.5714 
7.87862 9.44763 4.11268 5.32981 9.96936 6.94604 6.69383 9.82283 7.54937 
8.03898 9.50458 5.65133 7.97603 9.35189 6.96122 7.84674 9.0584 8.15353 
6.97255 10.0617 4.85587 5.43198 10.3245 5.60943 5.44606 10.1284 4.12833 
1.63592 3.81997 -1.67385 7.67625 3.78439 -1.51009 5.14449 8.67248 -1.0656 
7.75306 8.48138 -0.837665 1.80153 8.47109 -0.888604 8.44386 6.48629 -0.667498 
8.47943 1.52207 -0.433734 6.44553 1.17131 -0.92786 0.700889 6.44163 -0.753724 
3.48435 1.18369 -1.08975 0.828106 1.40272 -0.529602 4.92119 3.87153 -1.96655 
3.16436 6.66973 -1.88231 6.57472 6.70956 -1.67144 8.50831 8.15623 -0.0580068 
6.46975 8.63526 -1.11166 3.42659 8.69997 -1.01715 0.743906 8.38699 -0.33177 
8.48414 5.10491 -1.10601 8.48452 3.70029 -0.957316 8.01619 2.51389 -0.973762 
6.98129 2.46716 -1.53472 7.59691 1.19613 -0.99291 0.658778 5.11215 -1.3556 
0.697008 3.688 -0.890433 2.58844 2.37644 -1.39377 1.21972 2.55295 -1.2191 
1.92043 1.20052 -0.995004 5.03386 0.991075 -1.32585 4.09513 2.36623 -1.80639 
3.22429 3.8326 -2.0093 5.65998 2.34022 -1.76535 6.36872 3.90615 -1.85804 
2.60497 5.25151 -1.68793 1.70646 6.56165 -1.54614 1.06665 7.75098 -0.828848 
2.73717 7.8797 -1.14959 4.21817 8.11152 -1.41326 7.0751 5.28085 -1.74271 
7.71754 6.5995 -1.4315 5.82501 8.10631 -1.46098 7.08718 7.81882 -1.0662 
8.40272 7.78804 -0.631111 4.94718 6.79067 -1.8784 5.67761 5.41454 -2.03909 
4.08998 5.38686 -2.17206 1.88786 3.84312 10.1885 7.48897 3.82508 10.1781 
5.12321 8.33009 9.37666 7.63526 8.25974 9.49955 2.05022 8.26274 9.45993 
8.45349 6.47477 9.42162 8.29181 1.49364 9.1148 6.39553 1.29017 9.91381 
0.788102 6.52058 9.48719 3.48295 1.20306 9.92652 0.940682 1.42775 9.43945 
4.8518 3.95129 10.3128 3.23534 6.62102 10.1709 6.50237 6.72223 10.1488 
8.48354 8.07919 8.99948 6.54036 8.2646 9.53834 3.46135 8.36422 9.42095 
1.06078 8.15639 9.04866 8.33668 5.13875 9.84763 8.31754 3.63564 9.44977 
7.99449 2.58161 9.73892 6.83306 2.56059 9.8821 7.48175 1.41434 9.63737 
0.821504 5.12133 9.97884 0.819626 3.71343 9.56525 2.74048 2.41995 9.94727 
1.27986 2.5808 9.75127 2.08903 1.42185 9.50544 5.01067 1.11614 9.79978 
4.1628 2.4922 10.2844 3.22188 3.89162 10.4412 5.58976 2.50165 10.2767 
6.34061 3.96014 10.3975 2.63356 5.25233 10.0577 1.88089 6.54637 10.0937 
1.30573 7.71222 9.53392 2.76315 7.89573 9.83772 4.2797 7.93906 10.0582 
6.9454 5.32204 9.95309 7.67261 6.56785 10.0005 5.7137 7.89774 10.0278 
7.0594 7.78454 9.81131 8.08884 7.5473 9.20697 4.90242 6.69457 9.96862 
5.59207 5.40065 10.4546 4.09086 5.36011 10.486 
POLYGONS 709 2124
OFFSETS vtktypeint64
0 3 6 9 12 15 18 21 24 
27 30 33 36 39 42 45 48 51 
54 57 60 63 66 69 72 75 78 
81 84 87 90 93 96 99 102 105 
108 111 114 117 120 123 126 129 132 
135 138 141 144 147 150 153 156 159 
162 165 168 171 174 177 180 183 186 
189 192 195 198 201 204 207 210 213 
216 219 222 225 228 231 234 237 240 
243 246 249 252 255 258 261 264 267 
270 273 276 279 282 285 288 291 294 
297 300 303 306 309 312 315 318 321 
324 327 330 333 336 339 342 345 348 
351 354 357 360 363 366 369 372 375 
378 381 384 387 390 393 396 399 402 
405 408 411 414 417 420 423 426 429 
432 435 438 441 444 447 450 453 456 
459 462 465 468 471 474 477 480 483 
486 489 492 495 498 501 504 507 510 
513 516 519 522 525 528 531 534 537 
540 543 546 549 552 555 558 561 564 
567 570 573 576 579 582 585 588 591 
594 597 600 603 606 609 612 615 618 
621 624 627 630 633 636 639 642 645 
648 651 654 657 660 663 666 669 672 
675 678 681 684 687 690 693 696 699 
[...]
CELL_DATA 708
SCALARS scalars double
LOOKUP_TABLE default
-5.4785138024 -4.0903860638 -5.3118547102 -4.9740299086 -6.1638463116 -6.5941017336 -6.4147826203 -5.5791702336 -4.9624079649 
-5.4722735032 -5.4374358753 -5.2548377254 -9.1511828474 -4.7904544097 2.3164002566 1.7903840597 -1.4080904114 -2.1151351672 
2.6508886425 0.75492857837 2.3829842039 6.305551734 5.7338630296 6.1951723488 7.0534205413 6.3508807089 6.2457600289 
6.4324011503 6.0281433235 3.131187714 1.649562731 3.5072278892 2.4680800477 -1.4854444723 -1.177337016 2.8880953797 
-2.1174797045 1.2100518401 2.9348425813 3.951838043 4.8169165194 5.4292447336 5.0893676818 7.6798482771 7.1146776718 
7.3723258602 7.0900345247 7.1450686478 4.5796449329 1.8991734792 1.2282309566 0.97865330122 4.4260941326 6.3092241443 
7.5418400832 7.9254114076 4.1258092358 6.7874307057 7.0388487368 3.1212226914 2.46171323 2.850114272 4.9127318354 
2.5833466339 2.3544427977 3.4737183721 2.8577350083 5.662397128 5.2345866023 5.5106598405 0.31512587928 -1.8744274348 
-0.533761222 0.56849328807 -5.9068709395 -0.17531499898 -5.9094498416 -1.2911562844 1.7268696093 -6.1529507238 -5.7839353752 
-6.8865723039 -6.0770412091 -1.4671092849 -1.3786678326 -2.5949150579 1.0857740268 0.39055016313 -1.755176864 0.44155433109 
-2.8569749326 -5.8396945426 -5.2064247414 -6.2335325901 0.44248831725 -4.2192209434 -4.0341138837 -1.8064213404 -2.4751965366 
0.35898436648 -2.6324746832 -2.5484560938 -5.3631222122 -1.7575371968 -1.0833524926 -1.5600750518 0.75018587771 0.80745589587 
1.2590314609 0.23738190507 -1.118565296 2.4518538824 1.2557295639 1.7567847197 1.4739122074 -1.9073572027 -0.59790025702 
-1.0396632357 -1.4975828969 -6.5829838092 -3.5738287919 -1.9757992545 -2.4344210631 2.1987903507 -6.5605812046 -2.5051235591 
-2.9291375233 -3.1477555723 -5.8185248665 -4.0278380042 -6.6759611749 -1.7070917401 2.882334868 3.1241619094 -2.1524949502 
-2.4415863886 1.1446930027 0.67216671195 3.1709600773 5.068803208 1.6596617421 2.3119544226 3.4931471912 5.4357830913 
5.554707279 2.6036959552 3.2347822857 3.267120044 -0.21661987296 5.4675854996 -0.53963222562 -0.58601638715 -0.28713405519 
2.2457706842 -2.2062135279 -0.014353709282 2.2365447246 2.387203818 0.96478168691 4.5343493507 2.4033103534 7.3986088019 
5.5044085904 5.7351339613 6.2113130107 6.1626539381 4.3514150067 0.30801869586 0.066502373266 0.26840851083 4.7729608206 
5.2822683146 5.3032139148 5.7736837622 1.3190342837 7.377561007 6.4267011367 3.6750658144 0.70467157287 3.3127965231 
1.9987021615 1.3172970965 3.7222270281 3.4865450912 0.25510789255 3.1646825992 3.3320720528 3.2229362692 -0.60941508843 
-2.1244967362 1.4270888513 0.85491351812 -4.5732520866 0.13751018876 -3.5922171018 -2.2715820334 1.9792120227 -2.8918465898 
-2.5207800684 -2.5068827752 -0.40984652478 -2.2444036482 -0.70830277361 -2.3605823286 -0.89024331646 1.1864752184 -2.091091417 
0.99062381197 -1.77297707 -2.4582270066 -3.7053938257 -3.9423322057 -1.1943827822 -3.6001019163 0.74606637382 -1.555917971 
4.7835896436 -1.5228638102 -2.14813317 -2.6039947605 -7.0378223967 -0.26240589509 -0.58749827418 0.22246056985 0.57659526433 
-1.2743994534 1.0787024502 -0.90265154412 0.91531389268 1.3779739252 -1.27257416 -1.0361726753 1.9384443773 -1.4529420799 
-1.4691753637 -2.085074192 -4.8905549062 0.39011952528 -6.5100509405 -6.6532958084 -8.0847285831 -7.7020997853 -3.5843053979 
-7.7523948708 -6.6483562825 -7.6587320272 -3.5220638074 -7.6814443333 -3.1964874628 -3.5539075668 -6.529177352 -8.0674110132 
-6.5693394143 -5.1005477509 -6.6166428079 -5.4744905136 -6.9085415132 -8.1094017589 -8.5507829746 -7.9300204932 -7.4950371329 
-8.6306035129 -8.7212968553 -4.7663318411 -8.6054291729 -5.913901085 -8.0352079596 -6.6619648427 -6.3526092676 -5.2502886671 
-7.5472793316 -7.8199078906 -9.0111354689 -7.8875249434 -7.9834620075 -7.6174783647 -8.3735840924 -9.098515799 -9.1451425036 
-8.6812077969 -9.23134133 -7.6487302275 -5.3056590833 -7.1287740631 -7.4185686251 -9.2060588956 -8.8813237977 -8.5533510599 
-8.4513230722 -7.0160964524 -5.1179496958 -8.8538786583 -8.7558942992 -8.7984804466 -9.1510435598 -8.7875374601 -9.8268297219 
-9.925186742 -9.7636129741 -9.1363795909 -9.7981646608 -9.7071682532 -9.9069451634 -9.8067302467 -9.2188702128 -8.7992916418 
-9.511321796 -8.9277085329 -8.9622047399 -9.3554336981 -8.9216920681 -5.2106336662 -4.5787947037 -9.1147842904 -6.0476034967 
-7.1273276514 -7.7891753919 -8.2936788325 -9.0063831657 -9.054889356 -8.5369528927 -8.672393279 -8.1543477864 -9.2429693255 
-8.5217655602 -8.1438399257 -9.4591115917 -7.7887688226 -6.9789753885 -7.5131294257 -5.6904299951 -8.4306032951 -7.8373905646 
2.2105050075 -6.1237139934 -7.5359988001 -9.3988594635 -7.1395983115 -8.2178741046 -9.7475428042 -9.7307912655 -9.7343205403 
-9.5854091396 -9.6574219814 -9.866549767 -9.8670149814 -9.8737772592 -9.886541333 -9.8140571041 -9.8739932087 -9.9993921392 
-9.7819011154 -9.5697181952 -9.7336723558 6.307448934 0.27710473006 7.6666940385 4.7342705808 7.3323000556 3.2082322403 
5.6942064135 5.8058772784 1.5310839392 8.3123560921 5.9342586054 7.9064546024 4.0738208322 3.6752316771 7.0053958503 
7.7608046289 9.0915766254 9.5608724191 8.5227736611 9.1169027998 8.3927554639 9.4820028883 7.0630964958 9.6085138315 
9.6080736335 8.4542670314 7.8729577438 7.7809707763 7.6033686896 8.8690621605 7.7853804851 7.005454016 8.2045061972 
8.0501206046 8.9156245077 8.950522289 9.9756532615 9.0791532531 8.943685975 8.6286865542 9.81176783 9.1783389283 
9.3548085285 9.1844667418 8.2179482315 7.8094496977 6.1610779728 6.3276462744 8.0288104448 8.2214955137 9.0371781244 
9.8788811283 8.7464884125 8.0326671386 6.2792200845 8.3380263334 8.2583351829 9.5405414425 8.8037905939 8.4515599405 
9.4346953252 9.7099022221 9.6034487854 9.2412905921 9.9037161941 9.7121359896 9.5795847918 9.8305133361 9.2055402023 
9.5118136232 9.39040562 9.91767015 8.7165281468 9.8896509364 9.8960743741 8.2969631911 6.6659815983 8.7024002201 
8.1105157652 7.2107314844 6.2290781132 9.9267469999 9.3649743529 8.932859756 8.8215139026 8.9422369247 9.6627348749 
9.9053994355 7.5048322933 9.793039138 9.5837540627 7.7805935263 8.5922366803 9.8797832015 9.5707284922 8.3443836352 
9.4141465519 0.11053802256 6.8490485012 7.6571821367 9.4268830287 8.6196279883 9.979358636 9.223878117 8.464684218 
8.5575365654 9.3092109326 9.967033571 9.8893008324 9.6665195184 9.9957038114 9.9167135774 9.5618138942 9.8664907362 
9.9098246433 9.9922226886 9.3472898278 9.8602175345 5.5054778534 6.2340351324 4.3523986757 8.2422593142 6.3420608693 
7.2142599386 9.1621246624 6.392587077 8.2817954557 6.1529564684 8.2984439097 6.4116230594 2.4290976241 9.8464313856 
5.5023868271 -0.87343698028 -0.74113414589 1.503146047 2.489125498 -0.10348210103 0.026666208859 -2.3287395476 -1.7017337107 
-4.0919923276 -1.3908218595 -4.5996884108 -5.8713535277 -5.4981010769 -5.6678517439 -4.3478223357 -2.0126912246 -2.4502368155 
-1.7590273745 -1.2519994991 1.4119003261 1.0099725087 -2.6375735821 3.4578451033 1.2232400161 -2.9007415572 -2.8731613603 
-2.8930492982 -3.5645883055 -2.3824541263 -5.074103816 -6.2378420807 -2.1807776541 -5.7259173237 -6.3247348195 -5.5027976272 
-3.4834136207 -0.68544963333 0.23997052034 -0.61939751326 -5.5107063882 -4.8541928213 -4.0175686581 -4.0743711756 -5.3110045554 
-6.3780608582 -3.0878732125 -1.2081847657 -2.7971461075 -4.8102694273 -0.93448895251 -1.1169060033 -1.4056637553 -1.188163757 
-4.1713858 -4.3604335817 -3.1788215848 1.087583654 3.4386714206 -0.46267179749 -0.083448282892 7.1343807884 6.6799437047 
4.4572398256 -0.92830659755 4.8820988193 6.5090948006 3.2933190546 1.1932188501 4.4241957102 1.2984432133 4.2374021384 
0.24974574859 1.2372073015 2.283019869 0.13613650811 3.1978241714 6.3624871777 5.6386736754 2.0121966287 0.41593491541 
5.8055449801 0.11632782978 3.3475588587 2.8586311869 0.42130512621 3.8453312718 4.1090968741 5.5373667126 2.1749342171 
3.2235509741 3.1869299547 1.2437292841 -0.48731479942 -0.84204768649 -0.23387329986 -0.083541268696 -1.1938021485 1.2981974287 
0.7659085059 -0.88163531452 2.1189014726 1.8431994385 1.5724665426 2.5549005666 7.7969389394 4.6897553024 3.2894850952 
5.1398061544 -0.4251104169 6.6925992742 4.7124431373 2.327782311 5.4809687677 5.7001830864 4.7129859647 7.0793645001 
6.0420283678 0.32241191416 -2.0843654717 -2.3571922248 2.1368716562 1.9160153421 -0.23642165058 0.54979441449 -2.859599024 
-3.0441374401 -0.63002276958 -1.3978472105 -4.7451338432 -4.8134980417 -3.120380787 -3.0031974862 -3.3110616634 0.034396616674 
-3.3334727783 0.68622730421 -3.8732584963 2.7184247624 2.1131359367 -2.4890934088 2.7109305376 0.7447454805 -2.5791435344 
-2.5526881886 -2.0647996471 -2.4500633161 -3.1041880167 -5.583968336 -3.8232737118 -3.3179555423 -5.4253263099 -3.6553594168 
-4.5682232121 -1.6116662114 -0.60058475021 0.26441798163 0.20063401774 -4.1297173422 -4.5255121345 -5.16568402 -1.5110509157 
-4.3645954492 -4.2263206996 -2.6299361086 -0.57374487477 -2.4809770336 -0.81361518922 -0.53543403095 -2.9643069993 -2.3310799369 
-0.2208715277 -3.105555579 -2.9727627927 -3.2819239602 1.1939620543 2.8247875706 -0.58853896108 -0.50854957459 1.7132085897 
4.7106071295 1.9897924746 5.710644048 5.757316674 4.3399523395 7.5102973397 4.3578077131 2.2864886283 1.7521588337 
3.2560236639 1.8273216942 -1.0280146752 1.9526661946 -0.76019558752 2.1480453248 4.716716813 4.5788984516 6.2285237832 
3.3909943918 3.600277212 -0.37446799877 4.9745774173 0.57504981807 3.4572762842 2.2608693342 3.8520110517 8.4714248326 
0.26863155863 -0.10913590191 -0.62127217285 -0.2150668479 2.1880476536 -0.68715514336 1.4583791809 0.46054720883 -0.78317982861 
1.8960310869 1.4197263036 -1.0932915272 3.0540994264 2.9657697424 3.562240816 
