# vtk DataFile Version 5.1
vtk output
ASCII
DATASET POLYDATA
POINTS 356 float
0.326775 0.388411 0.125633 0.51424 0.633898 8.61229 0.758123 8.19172 0.398495 
0.889621 8.29816 8.58685 8.64167 0.765338 0.33728 8.5725 0.871238 8.77811 
8.52711 8.13816 0.458013 8.51695 8.11714 8.51827 -0.16061 0.0721898 1.16936 
-0.43677 -0.0632057 2.56478 -0.727386 -0.373082 4.02082 -0.738387 -0.282987 5.57517 
-0.757086 -0.225834 7.05968 -0.130886 0.163271 7.99627 -0.1311 1.23454 0.0410261 
-0.0607499 2.43523 -0.487326 -0.338844 4.00275 -0.489635 -0.494634 5.70391 -0.468376 
-0.33981 6.89518 -0.207459 0.420134 7.74016 0.04626 0.291548 8.62275 1.30294 
0.113722 8.53917 2.67266 -0.162025 8.84871 4.11983 -0.174075 8.89156 5.5203 
0.183836 8.54385 6.78542 0.471429 8.59974 7.8909 -0.104605 1.27001 8.83052 
0.150189 2.5258 9.14134 -0.275814 4.02688 9.17737 -0.0143839 5.67932 9.00253 
0.123976 6.90233 8.85045 0.521863 7.85905 9.0325 8.99361 0.349 0.945743 
9.24109 -0.0681947 2.34964 9.22497 -0.240193 4.0541 9.31557 -0.167724 5.61158 
9.09593 0.0592319 6.98589 8.86345 0.455785 8.12776 8.90983 1.4341 0.13136 
8.91073 2.47343 -0.392127 9.1743 4.02421 -0.301075 9.23443 5.71783 -0.231455 
9.18373 6.86202 0.0321486 8.63692 7.725 0.0909925 8.54079 8.42691 1.31464 
8.81943 8.62988 2.52334 8.86045 8.81602 4.01948 8.87463 8.75493 5.55062 
8.84266 8.76173 6.84206 8.6255 8.59481 7.95574 8.77688 1.48849 8.60482 
8.79687 2.54575 9.15065 8.94521 4.07216 8.99351 8.84918 5.52927 8.86637 
8.83867 6.83178 8.58838 8.70969 7.80056 8.95448 1.46398 0.44967 -0.231156 
2.61756 -0.195913 -0.250356 4.33004 -0.131427 -0.540241 5.7741 -0.0736818 -0.639366 
6.9526 0.232593 -0.397623 8.06907 0.402445 -0.221824 1.45772 0.611642 9.00872 
2.72496 0.0547501 9.05381 4.3822 0.051702 9.24861 5.86019 0.112921 9.1927 
7.00546 0.370237 9.20707 7.92439 0.628821 9.0369 1.43474 8.52959 -0.200619 
2.58524 9.02536 -0.357775 4.25861 9.17747 -0.641705 5.78668 8.96672 -0.659985 
7.00857 8.59353 -0.349339 8.03547 8.53845 -0.0469195 1.37889 8.55782 9.20133 
2.59008 8.96457 9.14645 4.298 8.93671 9.36133 5.78269 8.80976 9.31522 
7.03737 8.56805 9.25856 7.96191 8.47488 9.01209 -1.43092 0.0420926 4.79383 
-1.58998 5.9511 1.68808 -1.29856 5.89524 7.39195 -0.575558 0.693906 7.27635 
-0.856207 0.460506 1.62405 -0.791439 3.17231 8.3513 0.12703 7.74624 8.24515 
-0.830717 8.0055 6.25662 -0.97762 3.22057 0.435316 -1.05377 8.03656 3.33243 
-0.0869466 7.77605 0.609953 -1.98532 5.91862 4.86389 -2.04942 2.96538 3.23103 
-1.9103 3.02232 6.31146 0.0251892 0.905449 8.27732 -1.05561 0.332208 6.22394 
-1.40789 0.121938 3.22479 -0.113442 0.873795 0.714659 -1.12469 4.7756 8.3126 
-0.91601 6.14585 8.44959 -0.67118 6.99908 7.84702 -1.30167 7.0155 6.87305 
-0.400141 7.88169 7.32525 -1.35673 4.74593 0.619799 -0.792872 5.95684 0.711423 
-1.35088 6.97225 2.56851 -0.952389 6.99171 1.18032 -0.714166 7.84138 1.92117 
-0.945397 7.78929 4.85508 -1.70017 7.0156 4.03882 -1.95317 5.86486 3.22753 
-1.53317 6.97131 5.54215 -1.85626 5.93531 6.31258 -1.95866 4.49172 2.52295 
-1.66829 3.07386 1.63913 -0.973949 1.31917 0.950656 -1.36512 1.09819 2.52833 
-1.69902 0.845111 4.09168 -1.84955 4.53431 6.84567 -1.47321 2.98349 7.46063 
-1.67574 0.848161 5.56807 -1.36149 1.06054 6.9152 -0.764813 1.29726 8.08915 
-2.11043 2.94232 4.8661 -2.09816 4.53289 5.51044 -2.19496 4.51085 4.05766 
10.0876 0.336601 4.70386 9.9341 5.761 1.73352 9.62858 5.82563 7.34167 
9.25852 0.876125 7.72383 9.39355 0.796042 1.79667 9.21611 3.17148 8.32558 
8.98251 7.61585 8.16667 9.58527 7.92675 6.20508 9.34817 3.19181 0.622896 
9.57239 7.93897 3.29752 9.19723 7.67008 0.772183 10.2014 5.708 4.76075 
10.1271 2.96828 3.25446 10.1414 2.92179 6.20363 8.74555 1.23178 8.2844 
9.37417 0.623573 6.2819 9.68193 0.533047 3.18389 9.14458 1.03018 0.519711 
9.54993 4.56578 8.20232 9.54216 6.00399 8.31075 9.49275 6.85409 7.78832 
9.7449 6.87598 6.72982 9.19238 7.77177 7.32676 9.88759 4.6852 0.873233 
9.39074 6.00382 0.797052 9.7611 6.89266 2.66964 9.50882 6.75731 1.38415 
9.43253 7.78303 1.87917 9.4745 7.9631 4.82501 10.0661 6.97814 4.05535 
10.1238 5.74465 3.28497 9.85195 6.84577 5.51749 10.1938 5.70427 6.23062 
9.98076 4.36318 2.58625 9.87897 2.96966 1.71534 9.49603 1.46349 1.03143 
9.79337 1.37817 2.51675 9.75495 1.29137 4.10025 10.0325 4.3531 6.83878 
9.75302 2.93261 7.4385 9.72458 1.16974 5.58595 9.66383 1.28818 6.82975 
9.3725 1.54886 8.01357 10.1136 2.84602 4.77594 10.0891 4.38755 5.5247 
10.3826 4.31567 4.04205 3.84361 -1.47503 1.52581 3.83486 -1.54783 7.61771 
8.82261 -0.921302 4.78673 8.55838 -0.237928 7.64926 8.45614 -0.310018 1.70197 
6.4207 -0.361497 8.50072 1.36408 -0.130456 8.42136 1.18538 -1.28589 6.28367 
6.51423 -0.563068 0.360957 1.1565 -1.22015 3.26051 1.36831 -0.201971 0.550857 
3.96207 -1.95771 4.87093 6.664 -1.70997 3.15311 6.6615 -1.72902 6.40444 
8.24617 0.503306 8.51531 8.89376 -0.86522 6.44805 8.88831 -0.976152 3.06667 
8.30352 0.275086 0.476494 5.11187 -1.05434 8.46614 3.76273 -0.626725 8.45139 
2.57298 -1.00017 8.15237 2.52935 -1.39011 6.88643 1.28998 -0.720843 7.43161 
5.17718 -1.16529 0.606589 3.75247 -0.915718 0.28501 2.5308 -1.56233 2.56307 
2.5597 -1.15122 1.091 1.27713 -0.835442 1.79624 1.03791 -1.36681 4.78649 
2.57285 -1.64393 4.1192 3.9935 -1.87305 3.15306 2.48943 -1.92561 5.63417 
3.90987 -2.01423 6.40618 5.34629 -1.73037 2.48519 6.63021 -1.31561 1.4895 
7.92716 -0.493003 0.743532 7.99088 -0.981875 2.31154 8.14316 -1.24896 4.0092 
5.28614 -1.53219 6.88927 6.58325 -1.27476 7.73701 8.16218 -1.15787 5.61476 
8.06907 -0.888897 7.10718 7.97571 -0.316306 8.45749 6.68913 -1.71681 4.82576 
5.3898 -2.0384 5.67618 5.32672 -1.98099 4.09107 3.73189 10.06 1.85323 
3.73222 9.98229 7.44438 8.66365 9.39887 4.83639 8.26242 8.89104 7.28974 
8.35456 9.0453 1.85819 6.4862 9.05781 8.38234 1.45338 8.64211 8.21369 
1.05307 9.51521 6.28678 6.45242 9.11682 0.516391 0.956849 9.55607 3.27471 
1.35087 8.78557 0.639834 3.86218 10.0449 4.79493 6.64967 10.0387 3.21058 
6.6049 9.92954 6.31836 8.08159 8.29495 8.2784 8.47438 9.28716 6.19075 
8.51785 9.20502 3.15867 8.5277 8.87574 0.608555 5.11377 9.57714 8.28795 
3.72772 9.23343 8.35752 2.54334 9.41211 8.02375 2.43302 9.62815 6.7555 
1.23612 9.29643 7.39708 5.09316 9.72556 0.741742 3.6725 9.44374 0.629805 
2.36784 9.67011 2.63232 2.35195 9.62525 1.1248 1.13886 9.3415 1.92914 
1.00909 9.37666 4.80564 2.31121 10.1352 4.12511 3.74737 10.2089 3.20971 
2.32165 10.048 5.44261 3.80962 10.2181 6.33526 5.28373 9.82235 2.53445 
6.6033 9.69907 1.76103 7.7349 9.10433 1.01628 7.79661 9.3403 2.53768 
7.89377 9.55538 4.02112 5.30496 9.81069 6.90106 6.61375 9.61547 7.48542 
7.84038 9.42791 5.52187 7.9415 9.48559 6.92716 7.82486 9.02349 8.1537 
6.86091 9.85616 4.82529 5.34641 10.1709 5.51478 5.32656 10.2633 4.07693 
1.68028 3.66959 -1.8573 7.601 3.69408 -1.72985 4.99649 8.43037 -1.10797 
7.69816 8.34369 -0.797063 1.88021 8.22295 -0.667606 8.38793 6.39818 -0.703437 
8.2871 1.54708 -0.279953 6.33158 1.11101 -1.25176 0.673443 6.37413 -0.961162 
3.44198 1.18725 -1.29351 0.742981 1.26433 -0.565023 4.84544 3.82889 -2.12729 
3.21273 6.55785 -1.94192 6.46189 6.6199 -1.88568 8.33004 7.99449 -0.0396783 
6.42101 8.55496 -1.09084 3.41639 8.5214 -1.06258 0.843392 8.19033 -0.334038 
8.42804 5.04447 -1.30177 8.3518 3.62883 -0.883875 8.11366 2.39148 -1.2118 
6.81591 2.38296 -1.57834 7.47734 1.23762 -0.947512 0.589 5.05393 -1.37213 
0.615241 3.63955 -1.21002 2.63752 2.27068 -1.76764 1.2167 2.47741 -1.23487 
1.8942 1.18712 -1.17952 4.99824 1.03958 -1.42762 4.16286 2.38553 -1.8713 
3.2553 3.77192 -2.13942 5.55628 2.39232 -1.99541 6.37037 3.75945 -2.1102 
2.49529 5.16111 -2.02614 1.74341 6.41771 -1.56694 0.925784 7.60427 -0.841597 
2.55817 7.86948 -1.51538 4.20096 8.0607 -1.74347 6.86472 5.19366 -1.78576 
7.66889 6.47816 -1.60151 5.80257 8.04075 -1.6639 6.99422 7.76293 -1.07114 
8.32657 7.65806 -0.679511 4.91479 6.62227 -1.99753 5.63191 5.24994 -2.22801 
4.0688 5.23731 -2.26348 1.92097 3.81653 10.2826 7.42528 3.72643 9.92108 
5.06648 8.30637 9.51701 7.46551 7.86669 9.05919 2.02889 7.98332 9.2115 
8.50975 6.38127 9.45051 8.30692 1.63866 9.12566 6.29134 1.26305 9.71673 
0.758448 6.38652 9.73706 3.43849 1.27568 9.65533 0.980504 1.52427 9.14825 
4.83316 3.83092 10.4468 3.30217 6.47317 10.1445 6.37541 6.53845 10.205 
8.06998 7.76512 8.66912 6.32104 8.17534 9.43244 3.50348 8.16972 9.2417 
1.28259 7.82269 8.79751 8.14483 4.95606 9.6881 8.41841 3.61897 9.56656 
7.79061 2.5833 9.54181 6.78802 2.52545 10.1153 7.36723 1.48573 9.50292 
0.730232 5.00283 9.86595 0.847734 3.6644 9.59517 2.73604 2.43767 10.0494 
1.38506 2.51716 9.83265 1.99801 1.2605 9.73507 4.91833 1.09709 9.86914 
4.15225 2.41698 10.319 3.34405 3.8234 10.1892 5.55899 2.46665 10.0995 
6.18084 3.84871 10.3108 2.6245 5.17861 10.2249 1.92771 6.41786 9.94972 
1.26096 7.54348 9.57975 2.75848 7.74847 9.92844 4.172 7.86186 10.0439 
6.94629 5.19757 10.1667 7.46398 6.41011 9.62596 5.71912 7.78287 9.9329 
6.96753 7.70998 9.78551 8.0701 7.57247 9.41506 4.85329 6.63713 10.3057 
5.58125 5.30575 10.2214 4.08482 5.21962 10.5388 
POLYGONS 709 2124
OFFSETS vtktypeint64
0 3 6 9 12 15 18 21 24 
27 30 33 36 39 42 45 48 51 
54 57 60 63 66 69 72 75 78 
81 84 87 90 93 96 99 102 105 
108 111 114 117 120 123 126 129 132 
135 138 141 144 147 150 153 156 159 
162 165 168 171 174 177 180 183 186 
189 192 195 198 201 204 207 210 213 
216 219 222 225 228 231 234 237 240 
243 246 249 252 255 258 261 264 267 
270 273 276 279 282 285 288 291 294 
297 300 303 306 309 312 315 318 321 
324 327 330 333 336 339 342 345 348 
351 354 357 360 363 366 369 372 375 
378 381 384 387 390 393 396 399 402 
405 408 411 414 417 420 423 426 429 
432 435 438 441 444 447 450 453 456 
459 462 465 468 471 474 477 480 483 
486 489 492 495 498 501 504 507 510 
513 516 519 522 525 528 531 534 537 
540 543 546 549 552 555 558 561 564 
567 570 573 576 579 582 585 588 591 
594 597 600 603 606 609 612 615 618 
621 624 627 630 633 636 639 642 645 
648 651 654 657 660 663 666 669 672 
675 678 681 684 687 690 693 696 699 
702 705 708 711 714 717 720 723 726 
[...]
CELL_DATA 708
SCALARS scalars double
LOOKUP_TABLE default
-4.9151383447 -1.6177987206 -4.2093958953 -4.6386729363 -5.8709970717 -8.8235444724 0.37018627796 -6.1144297662 -8.9994515516 
-6.2436561475 -7.9893514942 -4.2417498589 -2.1365209599 -0.12967710546 1.121290069 -0.051896221037 -2.1776289188 -1.4401420321 
1.6036844954 1.7893342865 2.4322729242 5.0543257487 5.7466466965 5.0283859962 7.4453760116 7.5944368556 7.1710187456 
5.0065718594 4.9293772614 2.8730201113 4.1081176086 4.2374414964 5.6342108708 -1.354210748 -1.6913002389 3.7858701563 
-1.1514792633 -0.61037601481 4.2080405585 4.1657097755 4.3212661658 5.4398839878 4.5069367461 8.1873824259 6.1256116969 
6.7487931086 7.7907324625 8.3771573215 5.5542058117 1.6446477085 0.43227243054 1.8337936156 7.3401050651 6.4917266425 
5.8261565362 7.3063803113 4.0698463324 6.559642102 5.8316852745 3.7798998262 2.3260490512 3.583402231 4.9220442618 
3.4994258917 2.083730927 3.9129842559 3.2926839569 5.7167135019 6.0223879934 6.3634655377 0.74025510648 -1.4998770212 
-0.51712000953 -0.067247241013 -2.4242890467 -4.8065893544 -5.2151769676 -2.5269822539 -7.6611749595 -4.6629344082 -5.6696421969 
-1.1867235796 -3.3601702831 -2.5248826699 -1.3864974941 -2.6233761203 1.9710897446 -0.8677219721 -1.4518238166 -0.39181143713 
-1.8831381697 -6.2135448611 -1.1683148373 -5.7967555685 -1.107208252 -2.6749938065 -7.3324703982 -7.1434710814 -7.7932562136 
-0.9746623388 -1.5215958744 -1.8463058351 -3.0430949163 -1.5465389171 -1.7839218661 -1.9811321618 -0.25173649295 1.6983653606 
1.2097712547 0.64776484602 -0.11758477919 1.6106123188 1.1766357228 0.82269467057 1.1081043237 -0.73410537141 -0.48944943662 
-0.19354791911 -3.3606818328 0.65504863539 -4.167156907 -2.3224202167 -2.3437512465 -8.3357924865 -4.6035060294 -3.2594181809 
-5.4712286337 -3.2031690286 -3.2500212416 -3.7515960374 -5.3243361348 -3.4721651764 -0.013346384282 -0.53857940919 -0.43992187873 
-1.5069951743 1.8019134442 1.0614991273 0.27571489241 4.2734266989 3.1002301242 4.0166020767 6.3001897974 4.5955722389 
4.2374046356 3.8997252551 3.8243011488 0.023518119909 1.006808683 1.9678040697 4.0128021727 -1.4211813217 -0.12885361972 
2.9867808002 -2.5304125319 -0.092438095199 3.3132525053 3.1876553472 2.4656496326 1.784138796 1.7157835346 6.7711108377 
7.2293486888 7.3168855437 6.9105171687 6.5023228711 1.8225534723 2.1331263217 0.28106355676 0.8318870717 5.97301356 
4.7802005385 6.2948553964 6.580055378 3.0087321049 6.0907308067 5.9426338534 2.4254805979 0.7803463596 1.8346213628 
1.8943955722 2.9013344955 1.5482489757 3.2875111346 1.9156535246 2.8037138711 4.8634053142 4.0754573883 0.0022853611169 
-2.3149350071 0.27347562612 -0.34862323066 -2.6287156438 -4.3161199119 -3.8716191882 -2.1081043335 -0.36559718901 -3.1959705022 
-2.1208946913 -1.1697444043 -3.7152317593 -1.3214986557 -0.2760600194 -1.5396268049 1.5215971356 -0.60642774219 -1.5023941485 
-0.41721908137 -2.5459195351 -2.7893902278 -3.8433299703 -4.572786661 -0.010337134286 -1.126059854 -2.7884406926 -2.7853713692 
-6.7600526105 -0.17999467267 -1.6113283962 -1.5060363936 3.5565796931 -2.2917856392 -2.2103982214 -2.2541137808 0.56198249866 
0.93099024619 -0.81922333983 -1.0062151063 -0.26713309004 1.5330477712 -0.41118482144 0.34226893516 0.28127176469 -1.8291716312 
0.26039548834 -0.80282276373 -5.9545722278 -7.2368481221 -5.0713807962 -3.1933634867 -7.2571435788 -5.2811282442 -5.6841742225 
-7.0285934617 -3.8240305841 -7.369905997 -7.9346255635 -4.9712158381 -5.9715985203 -5.4210466286 -4.887111829 -6.6419764232 
-6.5470068692 -7.4881886256 -6.4006872203 -7.2689467432 -5.5254229424 -9.1638588709 -7.5760750661 -8.5506896113 -8.9005653882 
-8.4913889541 -8.0012903056 -5.5434308996 -8.0847248821 -5.7392859549 -6.6983305541 -6.0352786174 -6.5069868408 -5.5921016266 
-7.4004851071 -7.3294738935 -9.1140859876 -7.8446361456 -7.4835256458 -7.3329004507 -9.5163052661 -8.9565224415 -7.9022031276 
-8.9592841008 -8.3116190377 -8.31427305 -7.4834214575 -8.5565978406 -8.6524873086 -8.3181586571 -7.5545361771 -9.1025349491 
-7.8791464311 -6.8708668657 -6.8251559534 -8.6797324076 -8.8211733735 -9.6406117289 -8.8646208136 -8.6174808318 -9.6737783625 
-9.7977786708 -9.8075698329 -8.890909601 -9.9840735532 -8.9844631678 -8.8349158854 -9.7501766784 -9.1103113633 -9.6857633993 
-9.4831377335 -9.5681376702 -7.921951016 -9.6390188181 -9.5254335954 -7.3172111971 -7.4895899305 -9.0586743227 -5.0806573211 
-6.492073451 -6.9536902135 -9.7511336678 -6.9164085074 -9.0731652164 -8.0746509063 -8.749000024 -9.3927405804 -9.4667850517 
-5.8340744835 -9.5701080753 -8.8177803896 -7.2619099512 -7.0070228588 -9.6684594302 -7.1039164834 -2.2555680239 -7.3152025592 
-7.4946562609 -2.9614113508 -6.3680359424 -8.7530198315 -8.4147058398 -9.1993108787 -9.3477513602 -9.532746112 -9.4232137616 
-9.227503513 -9.1183166645 -9.9866520446 -9.0252516453 -9.8397599413 -9.9770771327 -9.7156880259 -9.8769917639 -9.9871726281 
-9.809867369 -9.7121217628 -9.7608985931 8.633506296 7.6551294485 7.4350044286 5.8785986388 7.2366931864 3.1514714852 
9.088862655 7.8882432078 5.3866356148 8.1538451503 4.8945987341 7.5351703219 1.2944644432 0.026508677469 8.3777658967 
7.6390098951 9.0113132247 9.0310447772 8.4762293463 9.5537653203 8.2464039503 9.1819020557 6.7616626836 9.6467616175 
9.6852858169 7.1365960639 7.7190244039 8.5094315238 7.2431386972 9.4720594129 7.7190281855 7.9542941957 9.2882638127 
8.6346975157 8.8426892877 8.8827964914 8.8688121576 8.8612619026 8.9657904393 9.4699267768 9.5725056517 9.7142346738 
7.8610496456 9.6937846253 7.0494705696 8.2146828736 7.326953855 6.8685704216 7.7464083876 6.9360355673 7.8926708383 
8.9307053619 9.2613225732 9.5644700242 8.5949967592 9.0669226274 7.1786865419 9.3096031221 8.7731945872 9.1797513071 
9.4025512213 9.9469484324 9.2497094495 9.3183431891 9.9252917902 9.2334601737 9.036589769 9.9739566513 9.0168349587 
8.8373839903 8.7613445048 9.8065733345 8.470582703 9.7307258585 9.9651660949 8.8890882429 5.9523700535 8.8175255445 
8.8441842375 7.4392589404 7.3246749993 9.3765998173 9.3940379057 8.8519220888 8.8286721356 9.1299791849 9.6766205198 
9.6531627728 8.0114238201 9.822138679 9.3819855843 7.8742518355 6.3037406215 9.5948859306 8.9363313801 2.8185490003 
5.8624973385 8.854100443 3.4205178795 8.3651232753 9.4669140097 9.0059416896 9.9023405106 9.2149015753 9.436128179 
9.3466697955 9.6739429179 9.5961984348 9.9318609176 9.5352179873 9.6146753637 9.8955698333 9.7427052706 9.5380343042 
9.9111944293 9.7246486566 9.8026658189 9.7163721151 5.5734474628 4.2390460436 4.7603574387 8.7881531166 7.2949925195 
5.7688678519 9.4094819798 6.9400685793 6.8567785037 6.3711877196 5.9074479109 6.2743295168 6.4082303737 8.7153986331 
5.1704578608 -2.3222742588 -2.496308244 2.0510896425 3.2451275252 -0.53922856429 -0.037240245085 -2.650773112 -4.9315506266 
-3.3634605779 -3.4817965826 -5.6668026078 -5.5166414262 -1.7424157639 -1.6352975678 -4.0135360483 0.31371049613 -5.0336050615 
0.47843894995 -4.2173259009 2.4680301058 1.879641883 -1.0707918416 2.8559468447 -0.5081477239 -1.0043114856 -3.1127472264 
-4.4070030796 -2.8093779926 -2.3335571084 -5.5168279923 -6.2726856329 -3.6034215355 -5.3435083243 -6.4375095056 -5.7805483161 
-2.7349203075 -2.405276024 -2.3319077729 -1.121267766 -3.1422713521 -5.0568826703 -5.460863387 -4.1939436712 -5.5361552505 
-5.9215136575 -1.7358167813 -1.8102392455 -2.2082256843 -3.409735128 -0.87901543129 -2.6923806771 -2.569432327 -1.3380856302 
-4.3194422646 -3.7456223913 -3.5710368023 0.72187055746 2.8852732867 1.9051373071 1.4461880701 6.695061408 6.4788580234 
2.3204771767 3.2503280698 6.9986718259 6.7487209069 7.0813412971 7.2248633679 1.7922574058 1.8334457551 2.5797882757 
1.1385652058 -0.035873984743 2.8089071312 -0.45426729251 3.4886671167 7.3509818421 6.3872066895 3.2783622132 0.46489225526 
4.5902132464 1.0054792048 5.7393404205 6.320836742 0.49880010393 4.8003317929 4.8863372854 8.4287265166 1.8597047621 
1.5542359046 1.9823869732 0.29782994504 1.1139581485 -0.74970024583 0.94482566254 1.382226136 -0.90323269249 -0.15641499329 
-0.0094252666266 -0.83493478147 2.1189595866 2.0115450779 1.762095051 3.482028159 -3.0873713365 5.2640621489 2.5655023029 
5.1706948152 3.0256027269 -1.2453646913 4.8709870117 -0.25007238438 3.8088593089 0.49890365824 1.2130782988 5.6659313048 
-2.7598324043 -2.0419105685 -0.17212845944 0.79254185642 0.92007581498 -1.0103933393 -0.020452385556 1.0736279159 -1.2550270951 
-1.8307316057 -3.8106123504 -2.2031169609 -3.2276302561 -3.2542358386 -2.4149478399 -2.2767826545 -3.6297524631 -2.0923875389 
-2.1265574305 -2.3088927561 -0.52801952236 1.6437081303 3.6966485332 -2.1351198031 0.78625527718 1.8211797215 -2.1534037286 
-2.600588549 -2.9013878119 -3.2129151088 -1.5628450175 -3.8769019659 -3.9351394689 -4.4998154464 -3.2755747032 -5.9705409414 
-4.6642498758 -3.7197865458 -0.73647177909 -0.48264932428 -1.3044655738 -1.8831736992 -4.5653873138 -4.400493074 -4.1004750656 
-4.3227797233 -5.3001116299 -1.2861726047 -0.070350349766 -0.1695522408 -3.0187241207 -1.9460510195 -0.040048830483 -1.486195427 
-1.640142143 -2.2517395359 -4.0870315127 -2.3519135314 1.4286606826 0.94870767615 1.3643676343 1.0703605822 0.81661790686 
3.1076602578 1.285364781 9.3008754383 5.3587917603 4.9989273543 8.9509629042 8.2976575679 1.0546897402 2.0903832909 
1.6845670828 -0.36780900803 1.7911469301 1.202424736 2.2531206899 2.7605386663 4.6216240255 2.9628324178 7.0313816458 
3.1661293298 1.3413174758 9.0577435005 6.9071528447 9.5527598816 0.90930265197 0.73823042778 0.055518806358 6.8386289843 
2.5308377276 1.4468209372 2.5173873128 -0.11868875177 -0.64048854379 1.0126907816 0.80091802566 1.7054036117 -1.5483967945 
0.084528972769 -1.3422243654 0.45578144989 2.2626594366 -0.28019393219 0.49935093543 
