# vtk DataFile Version 5.1
vtk output
ASCII
DATASET POLYDATA
POINTS 356 float
0.395995 0.451843 0.180666 0.444995 0.54508 8.67867 0.586174 8.36428 0.291202 
0.913966 8.22621 8.56961 8.48264 0.833934 0.255401 8.4784 0.867734 8.70924 
8.57083 8.11168 0.433736 8.30702 8.03296 8.44326 -0.267811 -0.0738699 1.17336 
-0.648316 -0.211476 2.52254 -0.784511 -0.351963 4.01683 -0.908423 -0.297923 5.51756 
-0.597959 -0.145254 6.77462 -0.166561 0.0597087 7.98237 -0.323543 1.10024 -0.124936 
-0.176212 2.46455 -0.611667 -0.346229 3.99944 -0.613835 -0.378079 5.66019 -0.437702 
-0.322878 6.85924 -0.135156 0.361357 7.81212 -0.21031 0.29078 8.61049 1.26192 
0.0534046 8.51262 2.68653 -0.194203 8.89123 4.14442 -0.176591 8.8076 5.48202 
0.127476 8.54966 6.69856 0.387206 8.53951 7.81956 -0.000440472 1.2546 8.70744 
-0.0788456 2.58914 9.21389 -0.233211 4.06376 9.19174 -0.080654 5.7058 9.06912 
0.0770357 6.81359 8.88566 0.599204 7.72341 8.93418 9.01174 0.294568 0.942092 
9.33374 -0.189281 2.30799 9.51663 -0.348329 3.95579 9.49564 -0.312055 5.59163 
9.09246 -0.043679 6.99398 8.84919 0.439685 8.13122 9.02072 1.35977 0.0206314 
8.81149 2.4622 -0.390838 9.07642 4.03042 -0.34792 9.08626 5.60595 -0.222266 
9.23218 6.90832 -0.0312023 8.54447 7.60136 0.204015 8.54163 8.34381 1.33445 
8.78232 8.66412 2.49232 8.92099 8.78892 3.99679 8.9961 8.89616 5.49633 
8.85864 8.73393 6.7855 8.63419 8.46338 7.85623 8.8668 1.45432 8.7612 
8.66146 2.59682 9.09515 8.99195 4.09447 9.032 8.7681 5.6215 8.73148 
8.87193 6.70481 8.68729 8.43451 7.53748 8.67356 1.32953 0.290207 -0.313071 
2.63432 -0.121357 -0.400392 4.28033 -0.11751 -0.52208 5.76624 -0.168865 -0.748807 
6.88078 0.221536 -0.405033 8.01088 0.349511 -0.187544 1.433 0.569949 9.21851 
2.61392 -0.145588 8.99582 4.27794 -0.0376433 9.24694 5.78086 0.147807 9.12554 
6.83201 0.458259 8.99812 7.96846 0.531602 8.97431 1.29117 8.60135 -0.398816 
2.45799 9.05764 -0.408902 4.28724 8.99191 -0.60447 5.75786 8.86537 -0.619478 
6.93721 8.58912 -0.482565 7.84311 8.34706 0.0250137 1.45842 8.42936 9.13367 
2.5855 8.75287 9.08351 4.29696 8.86123 9.19804 5.72837 8.74066 9.25698 
6.95053 8.41668 9.0558 7.78521 8.20749 8.78738 -1.2979 0.204358 4.74525 
-1.70758 5.92732 1.62077 -1.4227 5.89965 7.34177 -0.808133 0.531202 7.42213 
-0.961285 0.524696 1.71978 -0.736979 3.21907 8.2954 0.0912781 7.66929 8.21645 
-0.894297 7.92902 6.21432 -1.08835 3.18299 0.431899 -1.03823 7.9348 3.30879 
-0.0547819 7.5813 0.67262 -1.92332 5.84008 4.8931 -2.13125 2.95192 3.19305 
-1.85398 3.01858 6.10795 -0.00439171 0.92311 8.18443 -1.05658 0.426846 6.13705 
-1.36799 0.172888 3.21642 -0.0662083 0.829977 0.664164 -1.08852 4.80828 8.26948 
-0.949774 6.10737 8.35833 -0.753229 6.91263 7.7566 -1.12942 6.93206 6.75611 
-0.443679 7.84347 7.28758 -1.39036 4.701 0.554109 -0.852295 5.90002 0.607283 
-1.36417 6.8308 2.55933 -1.05723 6.96911 1.18619 -0.747962 7.7904 1.8601 
-0.978583 7.78772 4.80056 -1.77579 6.96545 4.02496 -2.01589 5.84067 3.25514 
-1.61389 7.00251 5.52027 -1.79175 5.84531 6.24738 -1.89833 4.508 2.56966 
-1.59922 3.14467 1.76269 -1.05918 1.29043 0.817114 -1.63194 1.05028 2.52343 
-1.68128 0.836517 4.06547 -1.77958 4.48223 6.79682 -1.62803 2.97767 7.44835 
-1.74712 0.773279 5.52183 -1.47422 0.946611 6.80664 -0.940659 1.26412 8.16333 
-2.32491 2.90016 4.76841 -2.21894 4.50413 5.48246 -2.15963 4.48436 4.04901 
9.41371 0.524904 4.78902 10.0579 5.77144 1.81631 9.62038 5.69291 7.23802 
9.27473 0.845863 7.47776 9.2804 0.850939 1.761 9.20494 3.1405 8.27141 
9.04227 7.59333 8.21201 9.22676 7.76598 6.11305 9.37201 3.15136 0.542957 
9.48468 7.77816 3.26461 9.02563 7.58021 0.774257 9.94655 5.68809 4.75983 
10.1078 2.93449 3.26456 10.0143 2.82341 6.18942 8.87572 1.0952 8.43636 
9.62608 0.578846 6.27166 9.30579 0.655674 3.20678 8.81066 1.09514 0.605409 
9.49156 4.63491 8.17465 9.53843 5.90987 8.21276 9.26981 6.74784 7.71629 
9.65004 6.81331 6.72197 9.20669 7.71102 7.23426 9.93796 4.64769 0.765427 
9.49777 5.92315 0.736937 9.56917 6.802 2.62555 9.6382 6.8517 1.27769 
9.30909 7.69334 1.96801 9.46332 7.93191 4.80411 9.84784 6.83393 3.99217 
10.1703 5.67836 3.20739 9.80922 6.78373 5.44926 10.0813 5.66994 6.11387 
9.98765 4.30393 2.50996 9.97682 2.98226 1.71535 9.47007 1.53656 0.966955 
9.78823 1.35177 2.50685 9.97784 1.10588 4.05012 9.94573 4.43598 6.80422 
9.70471 2.95936 7.37665 9.86089 1.12834 5.47719 9.55003 1.35136 6.8412 
9.16282 1.55119 7.95231 10.0475 2.92848 4.77072 10.1689 4.39396 5.44792 
10.3495 4.40504 3.99101 3.84743 -1.66135 1.50929 3.82998 -1.51347 7.56295 
8.80905 -0.908691 4.80607 8.41821 -0.150528 7.6183 8.42144 -0.29297 1.55515 
6.53844 -0.623107 8.54447 1.45604 -0.0884794 8.36336 1.22 -1.30241 6.2685 
6.51007 -0.693082 0.274145 1.16345 -1.33051 3.25591 1.33324 -0.293188 0.517605 
3.95931 -1.99938 4.9244 6.60753 -1.59969 3.14456 6.53298 -1.50597 6.35668 
8.01902 0.624757 8.17503 8.63258 -0.722651 6.32253 8.75736 -0.836574 3.13017 
8.26521 0.269284 0.460378 5.14535 -0.951772 8.36639 3.76516 -0.702751 8.37744 
2.54571 -1.054 7.96252 2.61213 -1.30933 6.74738 1.22662 -0.770839 7.39992 
5.17245 -1.13905 0.619016 3.70647 -0.990223 0.195038 2.49821 -1.64653 2.50303 
2.58835 -1.04831 1.0911 1.28682 -0.879713 1.8244 1.00954 -1.34515 4.81492 
2.56429 -1.74527 4.09402 3.92212 -1.86184 3.22646 2.50269 -1.83538 5.54606 
3.88008 -1.85117 6.35887 5.30182 -1.87988 2.44889 6.52469 -1.41092 1.47772 
7.82029 -0.502118 0.724818 8.09717 -1.14103 2.2771 8.15945 -1.31877 3.97583 
5.24102 -1.60241 6.77778 6.43452 -1.0721 7.49747 8.18194 -1.26785 5.61901 
8.04023 -0.928653 7.0676 7.86198 -0.25452 8.35912 6.61005 -1.78478 4.82541 
5.34261 -1.95396 5.63471 5.29279 -2.04605 4.02684 3.69116 10.014 1.82138 
3.78718 9.84937 7.40417 8.28529 8.9837 4.78064 8.26187 8.87793 7.46261 
8.284 8.96975 1.74521 6.42383 9.11805 8.52225 1.33817 8.83381 8.26911 
1.05078 9.55603 6.24649 6.54941 9.17546 0.505495 0.929257 9.54052 3.21356 
1.39379 8.76193 0.773802 3.87126 10.1187 4.81902 6.54329 9.91056 3.13183 
6.58079 9.83395 6.32548 8.23941 8.6018 8.40944 8.28775 8.94969 6.12307 
8.39795 9.10565 3.28252 8.3547 8.679 0.588892 5.05667 9.40608 8.17905 
3.70272 9.24011 8.28148 2.5107 9.4223 8.0016 2.37233 9.72047 6.75579 
1.29754 9.06037 7.29825 5.09997 9.74636 0.801136 3.6217 9.55178 0.518708 
2.34616 9.66696 2.66566 2.39701 9.5831 1.14655 1.13533 9.33185 1.89462 
0.997584 9.42402 4.76124 2.25838 10.1964 4.1276 3.71669 10.1961 3.16259 
2.32833 9.87877 5.41001 3.68267 10.0642 6.29413 5.19541 9.8167 2.5741 
6.50587 9.75822 1.76412 7.69001 9.22435 0.97387 7.84476 9.28829 2.53864 
7.94726 9.70979 3.97855 5.22543 9.82649 6.83724 6.58103 9.62819 7.45604 
7.98005 9.65559 5.5023 7.89072 9.38211 6.78811 7.65913 8.98631 8.0197 
6.72316 9.79475 4.79339 5.312 10.1174 5.50979 5.27466 10.1739 4.05743 
1.75337 3.72415 -1.76054 7.50022 3.67162 -1.69562 4.9848 8.67435 -1.4735 
7.67665 8.25513 -0.785986 1.91241 8.10042 -0.690168 8.35873 6.29015 -0.801624 
8.13443 1.50752 -0.412916 6.28676 1.07881 -1.33382 0.596963 6.27513 -1.02333 
3.4398 1.18752 -1.41505 0.797374 1.35732 -0.597724 4.81192 3.74139 -2.25847 
3.25301 6.44052 -2.04744 6.35657 6.53197 -1.98203 8.42923 8.02273 -0.153012 
6.46814 8.44523 -1.25947 3.3982 8.42028 -1.04921 0.993145 7.95864 -0.145435 
8.32302 5.00022 -1.33162 8.27698 3.61767 -1.01227 7.91595 2.39713 -1.20379 
6.76587 2.46542 -1.48238 7.43291 1.13666 -1.08691 0.728099 4.97232 -1.31803 
0.576724 3.54591 -1.32916 2.68671 2.26048 -1.72882 1.28946 2.47543 -1.4247 
1.86353 1.16013 -1.08469 4.98206 1.02951 -1.4343 4.1545 2.40798 -1.86496 
3.26885 3.76389 -2.09115 5.58621 2.37525 -1.97911 6.27244 3.77842 -2.09939 
2.56024 5.10119 -2.02443 1.7083 6.39301 -1.61972 1.00261 7.63606 -0.886721 
2.53876 7.83922 -1.53799 4.1974 7.90093 -1.59716 6.83812 5.17818 -1.85114 
7.58293 6.46543 -1.56087 5.72415 7.87637 -1.56003 6.96511 7.65457 -1.15401 
8.20312 7.56056 -0.644863 4.86371 6.54769 -2.10703 5.58636 5.15814 -2.17883 
4.08714 5.16277 -2.22684 1.86726 3.70379 10.1752 7.36773 3.63418 9.94809 
4.95833 8.25535 9.52875 7.44002 8.02404 9.37689 2.01566 7.9101 9.15155 
8.3531 6.23279 9.38433 8.05494 1.62975 8.99384 6.3393 1.2109 9.88927 
0.889171 6.3256 9.63875 3.48417 1.22198 9.68777 0.85502 1.53622 9.06159 
4.7922 3.86785 10.3704 3.27049 6.33868 10.1158 6.24907 6.52987 10.0411 
8.45021 7.97681 9.08149 6.43726 8.09164 9.46072 3.48491 8.21488 9.40992 
1.12966 7.91505 8.93044 8.22923 5.01935 9.62092 8.03917 3.64813 9.36338 
7.9192 2.53678 9.56343 6.70569 2.5171 9.92059 7.37428 1.45917 9.48948 
0.793784 4.94936 9.80305 0.781072 3.64351 9.58596 2.76903 2.44263 9.9303 
1.36509 2.55723 9.9002 2.00243 1.38254 9.53971 4.93509 1.12508 9.69904 
4.132 2.31167 10.2629 3.38153 3.7293 10.3356 5.58541 2.46696 10.0909 
6.2669 3.8107 10.3177 2.66332 5.0989 10.1818 1.97796 6.41755 9.96635 
1.29497 7.51685 9.50073 2.77201 7.67337 9.82881 4.14457 7.75063 9.93497 
6.84822 5.21029 10.0864 7.41106 6.37299 9.65454 5.65026 7.74068 9.88348 
6.88635 7.53615 9.66545 7.95571 7.44445 9.25783 4.82765 6.53056 10.1062 
5.54551 5.20934 10.2937 4.03217 5.2314 10.5461 
POLYGONS 709 2124
OFFSETS vtktypeint64
0 3 6 9 12 15 18 21 24 
27 30 33 36 39 42 45 48 51 
54 57 60 63 66 69 72 75 78 
81 84 87 90 93 96 99 102 105 
108 111 114 117 120 123 126 129 132 
135 138 141 144 147 150 153 156 159 
162 165 168 171 174 177 180 183 186 
189 192 195 198 201 204 207 210 213 
216 219 222 225 228 231 234 237 240 
243 246 249 252 255 258 261 264 267 
270 273 276 279 282 285 288 291 294 
297 300 303 306 309 312 315 318 321 
324 327 330 333 336 339 342 345 348 
351 354 357 360 363 366 369 372 375 
378 381 384 387 390 393 396 399 402 
405 408 411 414 417 420 423 426 429 
432 435 438 441 444 447 450 453 456 
459 462 465 468 471 474 477 480 483 
486 489 492 495 498 501 504 507 510 
513 516 519 522 525 528 531 534 537 
540 543 546 549 552 555 558 561 564 
567 570 573 576 579 582 585 588 591 
594 597 600 603 606 609 612 615 618 
621 624 627 630 633 636 639 642 645 
648 651 654 657 660 663 666 669 672 
675 678 681 684 687 690 693 696 699 
[...]
CELL_DATA 708
SCALARS scalars double
LOOKUP_TABLE default
-5.37497232 -0.15785444692 -6.2589090485 -4.0556758038 -6.164620261 -6.4936217897 -5.733840332 -5.9730657572 -8.182506258 
-5.9547332834 -6.1212772629 -4.0937481351 -1.6979476161 -3.3659440787 0.69186430785 0.14029891708 -0.7926040337 -1.6409706852 
2.1228150785 1.1720815431 4.247689991 4.9000094699 4.0341914249 4.4128909021 6.7521497493 7.4055825901 7.0051029643 
4.9162724536 4.7520344637 4.087314165 4.3487707307 4.4596743747 5.5081915426 -0.87167730391 -1.3395362128 3.4667745049 
-1.0293862838 0.58683916201 3.8161711558 4.7967954722 4.0969048257 6.2291053148 4.5418069224 7.6421635176 5.1835438902 
4.7715363706 7.6855622744 8.1873779713 6.7678798845 2.0082790356 0.99102338833 1.5109561503 5.4346072337 5.553511211 
6.2459231734 7.4223075165 4.4170113972 6.1259533195 5.9745850367 4.7458022391 1.7186850104 3.811209845 3.9295684477 
2.0854599239 4.0355880147 3.5774181547 2.0503537676 6.2042917868 6.4588719174 6.6267642119 -0.35274035927 -1.5439043383 
0.0066628037678 -0.64204357712 -1.263661131 -7.5109498515 -5.364968625 -2.3254334992 -8.8561392748 -5.54580476 -5.9619958994 
-3.4283045664 -5.003438974 -1.1629716935 -0.87435518317 -1.0511022903 0.70906016366 -0.27706242857 -1.3471294752 0.850162701 
-1.0359134306 -5.4479771428 -5.8580932157 -7.7219999666 0.42546886132 -2.0925272218 -5.4984642392 -5.1145541237 -8.0356898159 
0.23374319223 -1.2506598842 -1.9364874222 -5.6526224793 -1.3285456754 -2.5592450724 -2.8001228529 -0.99771625793 1.1738615551 
2.5387770218 1.1920010847 0.77998453794 1.3754296964 0.084377157661 0.025802218122 1.9762308589 0.48827686408 -0.88236316883 
0.84630257958 -1.716299882 -3.3989453803 -2.3675700096 -3.7290530757 -2.5611904181 1.072706059 -3.6259323923 -2.2465769943 
1.3515985625 -1.9651534021 -0.85976438818 -1.9365364074 -0.82378424939 0.65696474098 -0.39341076709 -0.45475281499 -1.7272662327 
-1.4322202179 -0.20342011659 2.2991900501 1.4220602529 1.5468188811 4.2543186631 2.394950675 4.6714331177 3.349943712 
4.1886501928 5.2117760373 4.8224027802 3.0576942684 3.1097225032 0.26019576103 4.6858439868 -1.3867172864 -0.71214858591 
2.8961280213 -2.3735277071 0.45139670193 2.8134151186 3.8793588181 1.7819807157 5.1999223728 3.2028749265 5.4926404577 
6.3737285715 5.9623138876 5.7872352319 5.3214265889 5.2786197943 1.2390538581 0.27401113559 -0.47668243786 2.4085424314 
7.0266184878 3.0259253652 2.6856858389 2.1367893075 5.0798910507 4.7955250862 4.5455045624 1.7727439281 3.8323691719 
4.5666048094 1.8240918384 1.4738940935 2.9818897963 1.0571516976 3.8890518152 3.4449259785 3.066458352 -0.67440612163 
-2.495759207 0.41695357652 0.079819662778 0.10593201439 -7.3134630774 -3.4397670162 -1.3048946192 -7.8592012172 -3.0565256124 
-2.9905954598 -6.8370796158 -4.9991688381 -1.5651419458 -0.68545423641 -2.1791621412 1.4378645546 -0.57389240405 -1.3117739018 
-0.31166759022 -1.8999037905 -2.3477958832 -2.8914893085 -0.7669026337 -1.2120078177 -2.0112376837 -0.80771034809 -4.9097606658 
-2.5355693604 -1.2363574752 -1.8011306274 -2.0588842666 -6.4584658131 -0.96825223065 -0.53851950703 -0.70640852932 -0.20203984699 
1.0877985066 1.1835821919 -0.17268638574 -0.43866483751 2.2067641056 -0.88218926981 -0.08995501937 2.3046040911 -1.8061029282 
-0.90197295227 -1.3728822918 -7.2965759093 -8.3955730357 -7.1990439324 -7.2567682955 -8.0380020719 -7.687036366 -7.4507185391 
-8.1266476545 -7.537584448 -6.5990212009 -8.2260168909 -5.1815624812 -4.4840684519 -4.5828038335 -6.2003297576 -7.0827809075 
-7.490668622 -4.2925931695 -5.8069021462 -7.8102137383 -6.1567232296 -9.4236519818 -6.9925336714 -8.9459966468 -9.4239015169 
-8.2242809335 -8.7050152863 -6.9637844755 -7.7327869675 -7.4780886259 -7.0970249665 -6.8362955739 -7.5072753753 -7.6056924858 
-6.444918594 -6.4537042085 -8.8795670225 -8.3540922059 -7.8445252122 -6.8155810133 -8.7262716763 -8.723938345 -8.554969921 
-8.6171863096 -8.6598315448 -8.7106768097 -7.4847783115 -7.1258304939 -9.0158550018 -8.6037728399 -8.1745929233 -8.6573733942 
-7.8732820216 -6.1122698009 -7.8513052167 -8.8772253622 -8.4941350937 -9.6533093306 -8.8361994378 -8.7639525054 -9.8940837487 
-9.8796758069 -9.9102485942 -9.0145572552 -9.9267599024 -9.1655103547 -8.7823251249 -9.8787632121 -9.3538863966 -9.6379180718 
-9.5750612613 -9.1891934981 -8.4807312353 -9.5521962209 -9.2421289699 -7.3636401972 -7.9397097734 -9.6612562709 -5.5577418248 
-7.7590369744 -8.1268046707 -8.4269557655 -5.8990152236 -9.6632846776 -8.206089918 -8.4157759591 -9.1083814383 -9.1282011813 
-9.1201027059 -9.0776556409 -9.3851943002 -7.8288784683 -6.4015774763 -7.8327229262 -4.3044435981 1.87998069 -6.1796584334 
-8.4847770304 -1.6695643592 -8.8803314834 -9.143709331 -8.5611526291 -8.5649603634 -9.5742617822 -9.6678393587 -9.5338332152 
-9.377685794 -9.5783957905 -9.9462461499 -9.505755617 -9.6065142187 -9.9305534453 -9.9073601712 -9.9187175515 -9.9836375904 
-9.6108517299 -9.5146153894 -9.8507881783 7.9042849189 1.3065693982 8.1366654182 9.6925094089 7.1921503312 9.763969008 
7.8129266286 7.1299028739 7.6664313405 8.3272023968 5.288656886 7.1868240811 4.0777051707 3.7083625127 6.8120647982 
8.2258756215 9.0229721765 7.0856488225 8.6505794417 8.9995159684 8.6396813801 9.4752114229 8.9052279842 8.4038063159 
8.7602149234 7.0373805818 8.8868854537 6.3503911287 8.9566279181 8.6886553301 8.2170522991 8.0583488554 8.5056279304 
6.4914470833 8.7233938152 8.7500480314 9.417049645 8.7010282708 8.618230836 8.8762510616 9.5623246288 9.7165367677 
7.5620256556 9.7130994631 7.0266244783 8.0987245216 9.1383533457 9.1298228299 7.77917844 6.9519157277 7.9069166732 
9.3520240745 9.3624128888 8.9090919976 9.2682058093 8.6832492314 7.1459437743 9.1414949821 8.9199070498 8.9884310422 
9.3997114474 9.9860334277 9.1119795256 9.7834963004 9.8898251975 9.6229391994 9.6980629383 9.6833074398 9.5419303082 
8.6835301824 8.7686463057 9.870570676 8.7848924006 9.9364680761 9.9898325597 6.7851754558 5.5565711007 9.0847466841 
7.3275774717 8.2048713084 6.8403159994 7.5314630902 8.7218755456 9.1543753102 9.0136223642 9.2675288431 9.4006167115 
9.819441304 8.9476964002 9.541483119 9.437691285 6.8203810849 7.9229648961 5.1420346781 7.1542098504 8.6452656915 
8.1166195113 1.1638833058 7.0070281967 8.5152867204 9.4835348272 8.7468266539 4.1778402823 9.9289959245 9.9256727671 
9.9525846147 9.7284991138 9.795570022 9.9926543993 9.7318936963 9.7140777088 9.9876041604 9.7132585952 9.5919046752 
9.9906396293 9.7161068319 9.7531946717 9.7074195908 5.5856694465 8.7909714637 4.0085553943 9.1324815198 5.6930491635 
9.5512789403 9.2223018218 6.7450489424 6.6558791529 5.2092770995 3.5496029516 3.5936608984 6.8877807994 0.49810703092 
7.2202266872 -1.9302499812 -1.8591018386 0.39680923613 2.4101313041 -0.9187403317 0.41304223988 -2.9209046412 -3.3723240348 
-1.7743640475 -1.7405421187 -6.5779054156 -6.6319810361 -1.9981837097 -2.0454983864 -2.5611463125 -0.7605295109 -4.2770864003 
-0.83805582892 -6.0638039849 2.2145028566 2.5170822819 0.4442407697 1.2671632758 0.73709554893 0.68868006059 -1.7028333287 
-3.9163865999 -4.001411068 -3.431176725 -5.8901326106 -4.2966236359 -5.8773043862 -4.4102903928 -5.6262818215 -5.3950058981 
-3.9919088416 -1.317996835 -2.3698931106 -0.71166598221 -2.8851758174 -4.5198298011 -5.2217191834 -3.1628227266 -5.9396683853 
-5.6058741762 -1.5282430838 -2.3193843312 -2.081926442 -2.3100731405 -1.3850855259 -3.2458040552 -2.6684852263 -2.4439583392 
-4.065924136 -3.2232943855 -3.4195613801 0.33315125102 1.4735614282 1.2238376309 0.52480587386 3.883931278 4.6107671732 
3.2119603251 9.0298524942 6.7769447372 6.0583508567 6.8631633403 8.1769119917 2.0651381213 2.2788373329 2.8218498138 
0.50186331377 0.2454449478 2.5262498343 0.20332024488 4.262173488 6.7439248171 5.8063896164 0.76808412043 1.6942053417 
6.8151391592 1.0560055517 0.59215106482 -0.5989661404 1.7125864181 4.4862973198 4.6598153087 1.317491089 3.3344935208 
3.2745515214 3.646981701 -0.034302489955 0.40716840867 -0.033524011825 0.69528532606 0.51942486709 -0.33067458901 -0.63208538648 
-0.19746324223 0.38597476407 1.1061639727 0.94969177069 0.68237705802 4.8981477465 9.4617044805 5.2985198155 5.4859177457 
5.3263866825 4.8298950233 8.1514436946 5.5946541551 4.0691730955 4.1789781378 0.62686734316 3.3552874178 6.6253355159 
2.2250956927 3.7176106673 -2.2654879368 -2.2302735806 -0.55119903256 0.15719598841 -0.36200553118 2.3144947402 -1.8915493988 
-3.5561924793 -1.2969140303 -2.0564099348 -5.7145464181 -4.6113487753 -0.53947151574 -0.61276453595 -2.3706014018 0.64926322197 
-4.0062601768 0.954360988 -2.3069098492 2.1299739336 2.8025216166 -1.4067967069 1.3631009889 1.1407743945 -1.4567282312 
-2.1704280343 -2.6281293007 -4.5809651172 -3.1583872491 -3.9065705024 -0.86428079902 -2.2996894826 -1.4097300433 -3.4700098078 
-3.7902055273 -4.6066465084 -0.020359422175 0.30839173527 -0.2490098121 -3.5614089086 -5.5416482034 -6.5250545622 -3.2930483969 
-3.472249386 -4.1988974001 -2.5648642576 -0.60995899646 -1.808739379 -0.66518285834 -1.8024227405 -1.9179517215 -2.4099673783 
-1.2290820922 -2.2558352182 -4.4921900834 -3.4200110333 1.1293362646 1.3342913954 1.0546463637 0.54532851584 2.7722960392 
3.180477648 1.7866580506 7.5194728669 5.7289163495 5.434720503 6.8393383859 8.3137203506 1.722617494 2.0939004026 
2.5153437976 0.23162114303 1.8271696905 1.5398601532 1.8040448116 2.2547432686 5.0503070854 5.7134486417 4.9462908029 
2.896123481 4.7839398738 1.335174176 1.5427079959 -4.9269630777 1.9503683327 1.3987050323 1.5534272186 5.9548324989 
1.5093403604 1.3329794259 1.579727722 1.0467903261 0.2292050959 0.36221052162 0.97493382103 1.8225216172 -1.3396865189 
0.55858954639 -0.25065571906 -0.35709678237 3.4028491301 1.6444839371 2.2514808441 
