# vtk DataFile Version 5.1
vtk output
ASCII
DATASET POLYDATA
POINTS 254 float
1.24985 1.35945 1.18495 1.24699 1.35421 8.77715 1.17913 8.61255 1.24625 
1.17 8.61814 8.71547 8.63816 1.30384 1.08978 8.64112 1.29967 8.86927 
8.71899 8.66173 1.14991 8.72784 8.66643 8.80416 1.24066 1.10705 2.06062 
1.1992 1.07311 4.00073 1.19923 1.07317 5.99939 1.23976 1.10655 7.93909 
1.07273 2.07663 1.03429 1.0112 3.98831 1.06802 1.06835 6.0111 1.01054 
1.0383 7.92075 1.06932 1.09296 8.83538 2.06729 1.05672 8.88119 4.00219 
1.05684 8.88108 5.99788 1.09242 8.8356 7.93192 1.06396 2.07069 8.90177 
1.00275 3.98853 8.87067 1.05857 6.0116 8.92572 1.03084 7.92313 8.87114 
8.70768 1.24782 2.03343 8.73471 1.21671 3.9975 8.73472 1.21668 6.00271 
8.70897 1.24651 7.96672 8.85811 2.07338 1.02559 8.92252 3.98873 1.05863 
8.86891 6.01054 1.00239 8.89076 7.92869 1.0555 8.86106 8.71659 2.05074 
8.88562 8.75683 4.00022 8.88552 8.75678 5.99996 8.8621 8.71801 7.94939 
8.8659 2.06708 8.91022 8.92973 3.98893 8.87992 8.87851 6.01106 8.93279 
8.89654 7.9306 8.88572 2.13896 1.08636 1.06575 4.00184 1.0875 1.04695 
6.00156 1.03647 1.05172 7.96877 1.1162 1.06692 2.13608 1.0783 8.87586 
4.0015 1.08253 8.90351 6.00167 1.02573 8.88641 7.97051 1.10955 8.88057 
2.12772 8.84781 1.16714 3.99884 8.85044 1.16639 6.00363 8.88865 1.15472 
7.97835 8.83198 1.17814 2.12102 8.85596 8.76379 3.99862 8.85415 8.78346 
6.00494 8.89933 8.77397 7.98091 8.83814 8.76957 0.672068 5.96369 1.70698 
0.679807 5.96388 8.28117 0.88012 8.62257 6.71866 0.879799 8.62243 3.2813 
0.222856 5.95691 4.9999 0.439521 3.00903 3.29203 0.441022 3.00895 6.70714 
0.944676 4.47023 8.82395 0.97791 7.45759 8.84105 0.587134 7.40475 7.53434 
1.01223 8.64081 8.30338 0.94675 4.47076 1.12028 0.58433 7.40437 2.46337 
0.981954 7.4556 1.10114 1.01295 8.63867 1.6929 0.848401 8.61891 4.99999 
0.430437 7.40208 4.14184 0.315496 5.95615 3.28895 0.430978 7.40207 5.85789 
0.317895 5.95615 6.70992 0.443763 4.46939 2.46377 0.731107 2.99691 1.69363 
1.09865 1.70565 1.12136 0.856398 1.70267 2.45345 0.769378 1.7157 4.13842 
0.448891 4.46931 7.53246 0.736616 2.99625 8.29716 0.769515 1.71569 5.86156 
0.85627 1.7018 7.54564 1.09469 1.70028 8.82823 0.366412 3.00781 4.99992 
0.232691 4.46929 5.85978 0.231709 4.46928 4.13985 9.26926 5.96289 1.70732 
9.26123 5.96306 8.2808 9.02071 8.57303 6.7223 9.02086 8.57266 3.27776 
9.71336 5.95549 4.9999 9.48803 3.01622 3.29255 9.48655 3.01612 6.70662 
8.98702 4.47075 8.83342 8.95164 7.45631 8.85223 9.34145 7.39674 7.534 
8.90385 8.61355 8.3269 8.98631 4.47125 1.11086 9.34431 7.39631 2.46369 
8.94917 7.45434 1.09073 8.90296 8.61054 1.67013 9.04984 8.56689 5.00001 
9.49197 7.39148 4.14206 9.62247 5.9548 3.28941 9.49145 7.39148 5.85766 
9.62005 5.95481 6.70944 9.49613 4.47024 2.46466 9.20312 2.99975 1.6935 
8.82184 1.69261 1.08398 9.05359 1.73707 2.44861 9.13081 1.75678 4.13704 
9.49083 4.47016 7.53149 9.19733 2.99907 8.2973 9.13071 1.75675 5.86299 
9.05398 1.73593 7.55047 8.82398 1.68866 8.86673 9.55801 3.01578 4.99991 
9.70475 4.47024 5.85954 9.70573 4.47023 4.14009 4.0395 0.692211 1.71916 
4.03936 0.69884 8.26904 1.40595 0.922569 6.71913 1.4062 0.922426 3.28083 
4.04434 0.235018 4.99991 6.98049 0.466837 3.29391 6.9806 0.468135 6.7053 
5.53896 0.954437 8.82004 2.54547 1.00339 8.82289 2.60226 0.612707 7.52913 
1.37211 1.06129 8.28908 5.53892 0.957076 1.12737 2.60256 0.610237 2.4686 
2.54657 1.0077 1.12368 1.37407 1.06127 1.70606 1.41154 0.892107 5 
2.60555 0.454418 4.14274 4.04531 0.329376 3.29101 2.60555 0.454881 5.857 
4.04531 0.33153 6.70787 5.52984 0.457116 2.467 6.99722 0.75755 1.70182 
8.31402 1.14324 1.10501 8.24359 0.906906 2.45109 8.2198 0.826759 4.13733 
5.52991 0.461695 7.52939 6.9978 0.762496 8.28906 8.21984 0.826836 5.86272 
8.24479 0.906435 7.54814 8.31803 1.14044 8.84986 6.98067 0.3955 4.99992 
5.52932 0.245414 5.85913 5.52933 0.244533 4.14052 4.03799 9.22057 1.74751 
4.03783 9.21335 8.23826 1.3467 9.0695 6.71592 1.34686 9.06983 3.28395 
4.04286 9.71574 4.9999 6.98951 9.49189 3.29628 6.9896 9.4902 6.70274 
5.54154 8.94348 8.73538 2.53483 8.9098 8.73132 2.59192 9.33355 7.51965 
1.31799 8.90876 8.27398 5.54248 8.93455 1.19584 2.59222 9.33675 2.47749 
2.53427 8.89963 1.19938 1.32031 8.90977 1.72006 1.35188 9.10557 4.99999 
2.59459 9.51357 4.14358 4.04388 9.61202 3.29407 2.5946 9.51299 5.85612 
4.04387 9.60952 6.7046 5.5311 9.46963 2.47779 7.00579 9.16944 1.72528 
8.36833 8.79504 1.17474 8.29282 9.07799 2.45971 8.27299 9.1706 4.13896 
5.53114 9.46419 7.51771 7.00645 9.16279 8.26295 8.273 9.17045 5.86105 
8.29386 9.07812 7.53928 8.37263 8.79995 8.77346 6.99013 9.57227 4.99991 
5.53042 9.70204 5.85825 5.53043 9.70308 4.14133 1.70707 4.03583 0.67059 
8.28048 4.03573 0.678144 6.72099 1.33432 0.856158 3.27841 1.34654 0.86148 
4.99999 4.04225 0.2184 3.29139 6.99142 0.436495 6.70773 6.99293 0.434582 
8.82264 5.52966 0.944809 8.83416 2.5416 0.977046 7.53488 2.58762 0.57593 
8.31967 1.303 0.981664 1.12042 5.52906 0.946364 2.46294 2.59074 0.57674 
1.10241 2.54281 0.979905 1.70476 1.32405 0.996705 5.00298 1.34919 0.831068 
4.14193 2.59256 0.420172 3.28876 4.04313 0.31219 5.8586 2.59142 0.418576 
6.71027 4.04284 0.313532 2.46359 5.53071 0.442241 1.6939 7.00397 0.727893 
1.1223 8.28897 1.09435 2.45139 8.30634 0.842596 4.13865 8.2712 0.767703 
7.53256 5.53093 0.446677 8.29647 7.00624 0.73239 5.86476 8.28688 0.757819 
7.54761 8.30635 0.838726 8.79505 8.32776 1.06677 5.00039 6.99224 0.362655 
5.85997 5.53085 0.229767 4.13981 5.53074 0.229419 1.70726 4.03592 9.27502 
8.2802 4.03583 9.26706 6.72162 1.33139 9.08926 3.27813 1.34152 9.08512 
4.99998 4.04213 9.72815 3.29133 6.99179 9.51082 6.70785 6.99322 9.51237 
8.83261 5.52957 8.98884 8.84307 2.54133 8.95663 7.53447 2.5871 9.37029 
8.32604 1.29552 8.96568 1.11051 5.52898 8.98864 2.46329 2.59017 9.37002 
1.09339 2.54254 8.95517 1.69846 1.31774 8.95024 5.00274 1.34552 9.11574 
4.1419 2.59215 9.52741 3.28868 4.04302 9.63443 5.85857 2.59112 9.52876 
6.71031 4.04276 9.63294 2.46389 5.53077 9.50379 1.69403 7.00495 9.21776 
1.11661 8.29975 8.85415 2.45106 8.30609 9.10319 4.13833 8.27456 9.18023 
7.53215 5.53099 9.49907 8.29629 7.00734 9.21311 5.86482 8.28641 9.18674 
7.54864 8.30839 9.10936 8.79983 8.33658 8.88184 5.00033 6.99249 9.58442 
5.86001 5.53092 9.71662 4.13976 5.53082 9.71705 
POLYGONS 505 1512
OFFSETS vtktypeint64
0 3 6 9 12 15 18 21 24 
27 30 33 36 39 42 45 48 51 
54 57 60 63 66 69 72 75 78 
81 84 87 90 93 96 99 102 105 
108 111 114 117 120 123 126 129 132 
135 138 141 144 147 150 153 156 159 
162 165 168 171 174 177 180 183 186 
189 192 195 198 201 204 207 210 213 
216 219 222 225 228 231 234 237 240 
243 246 249 252 255 258 261 264 267 
270 273 276 279 282 285 288 291 294 
297 300 303 306 309 312 315 318 321 
324 327 330 333 336 339 342 345 348 
351 354 357 360 363 366 369 372 375 
378 381 384 387 390 393 396 399 402 
405 408 411 414 417 420 423 426 429 
432 435 438 441 444 447 450 453 456 
459 462 465 468 471 474 477 480 483 
486 489 492 495 498 501 504 507 510 
513 516 519 522 525 528 531 534 537 
540 543 546 549 552 555 558 561 564 
567 570 573 576 579 582 585 588 591 
594 597 600 603 606 609 612 615 618 
621 624 627 630 633 636 639 642 645 
648 651 654 657 660 663 666 669 672 
675 678 681 684 687 690 693 696 699 
702 705 708 711 714 717 720 723 726 
729 732 735 738 741 744 747 750 753 
756 759 762 765 768 771 774 777 780 
783 786 789 792 795 798 801 804 807 
810 813 816 819 822 825 828 831 834 
837 840 843 846 849 852 855 858 861 
864 867 870 873 876 879 882 885 888 
891 894 897 900 903 906 909 912 915 
918 921 924 927 930 933 936 939 942 
945 948 951 954 957 960 963 966 969 
972 975 978 981 984 987 990 993 996 
999 1002 1005 1008 1011 1014 1017 1020 1023 
1026 1029 1032 1035 1038 1041 1044 1047 1050 
1053 1056 1059 1062 1065 1068 1071 1074 1077 
1080 1083 1086 1089 1092 1095 1098 1101 1104 
1107 1110 1113 1116 1119 1122 1125 1128 1131 
1134 1137 1140 1143 1146 1149 1152 1155 1158 
1161 1164 1167 1170 1173 1176 1179 1182 1185 
1188 1191 1194 1197 1200 1203 1206 1209 1212 
1215 1218 1221 1224 1227 1230 1233 1236 1239 
1242 1245 1248 1251 1254 1257 1260 1263 1266 
1269 1272 1275 1278 1281 1284 1287 1290 1293 
1296 1299 1302 1305 1308 1311 1314 1317 1320 
1323 1326 1329 1332 1335 1338 1341 1344 1347 
1350 1353 1356 1359 1362 1365 1368 1371 1374 
1377 1380 1383 1386 1389 1392 1395 1398 1401 
1404 1407 1410 1413 1416 1419 1422 1425 1428 
1431 1434 1437 1440 1443 1446 1449 1452 1455 
1458 1461 1464 1467 1470 1473 1476 1479 1482 
1485 1488 1491 1494 1497 1500 1503 1506 1509 
1512 
CONNECTIVITY vtktypeint64
20 21 82 22 63 21 65 57 64 
58 65 66 64 66 65 23 3 66 
19 18 58 3 19 66 66 19 58 
22 23 64 64 23 66 63 22 57 
57 22 64 67 13 77 14 13 67 
69 56 68 70 68 59 69 70 15 
68 70 69 16 2 70 70 59 16 
17 16 59 2 15 70 15 14 69 
56 14 67 69 14 56 71 17 59 
58 18 71 71 18 17 72 59 68 
73 68 56 60 72 73 68 73 72 
65 58 74 75 74 60 57 65 75 
74 75 65 72 60 74 71 74 58 
59 72 71 74 71 72 76 56 67 
61 76 77 67 77 76 13 12 77 
12 0 78 80 61 79 79 9 80 
8 78 0 9 79 8 78 8 79 
77 79 61 78 77 12 79 77 78 
63 57 81 82 81 62 63 82 21 
81 82 63 84 62 83 10 84 83 
80 10 83 84 10 11 1 20 85 
85 20 82 11 85 84 85 11 1 
62 84 82 85 82 84 10 80 9 
86 83 62 61 80 86 83 86 80 
87 62 81 75 81 57 60 87 75 
81 75 87 76 61 88 73 88 60 
56 76 73 88 73 76 87 60 88 
86 88 61 62 87 86 88 86 87 
36 115 37 38 37 96 98 97 90 
91 99 98 97 98 99 39 99 7 
35 91 34 7 99 35 99 91 35 
38 97 39 97 99 39 96 90 38 
90 97 38 100 110 29 30 100 29 
102 101 89 103 92 101 102 31 103 
101 102 103 32 103 6 103 32 92 
33 92 32 6 103 31 31 102 30 
89 100 30 102 89 30 104 92 33 
91 104 34 104 33 34 105 101 92 
106 89 101 93 106 105 101 105 106 
98 107 91 108 93 107 90 108 98 
107 98 108 105 107 93 104 91 107 
92 104 105 107 105 104 109 100 89 
94 110 109 100 109 110 29 110 28 
28 111 4 113 112 94 112 113 25 
24 4 111 25 24 112 111 112 24 
110 94 112 111 28 110 112 111 110 
96 114 90 115 95 114 96 37 115 
114 96 115 117 116 95 26 116 117 
113 116 26 117 27 26 5 118 36 
118 115 36 27 117 118 118 5 27 
95 115 117 118 117 115 26 25 113 
119 95 116 94 119 113 116 113 119 
120 114 95 108 90 114 93 108 120 
114 120 108 109 121 94 106 93 121 
89 106 109 121 109 106 120 121 93 
119 94 121 95 119 120 121 120 119 
47 46 148 45 129 46 131 123 130 
124 131 132 130 132 131 44 1 132 
11 10 124 1 11 132 132 11 124 
45 44 130 130 44 132 129 45 123 
123 45 130 133 42 143 41 42 133 
135 122 134 136 134 125 135 136 40 
134 136 135 8 0 136 136 125 8 
9 8 125 0 40 136 40 41 135 
122 41 133 135 41 122 137 9 125 
124 10 137 137 10 9 138 125 134 
139 134 122 126 138 139 134 139 138 
131 124 140 141 140 126 123 131 141 
140 141 131 138 126 140 137 140 124 
125 138 137 140 137 138 142 122 133 
127 142 143 133 143 142 42 43 143 
43 4 144 146 127 145 145 25 146 
24 144 4 25 145 24 144 24 145 
143 145 127 144 143 43 145 143 144 
129 123 147 148 147 128 129 148 46 
147 148 129 150 128 149 26 150 149 
146 26 149 150 26 27 5 47 151 
151 47 148 151 27 5 27 151 150 
128 150 148 151 148 150 26 146 25 
152 149 128 127 146 152 149 152 146 
153 128 147 141 147 123 126 153 141 
147 141 153 142 127 154 139 154 126 
122 142 139 154 139 142 153 126 154 
152 154 127 128 153 152 154 152 153 
55 181 54 53 54 162 164 163 156 
157 165 164 163 164 165 52 165 3 
19 157 18 3 165 19 165 157 19 
53 163 52 163 165 52 162 156 53 
156 163 53 166 176 50 49 166 50 
168 167 155 169 158 167 168 48 169 
167 168 169 16 169 2 169 16 158 
17 158 16 2 169 48 48 168 49 
155 166 49 168 155 49 170 158 17 
157 170 18 170 17 18 171 167 158 
172 155 167 159 172 171 167 171 172 
164 173 157 174 159 173 156 174 164 
173 164 174 171 173 159 170 157 173 
158 170 171 173 171 170 175 166 155 
160 176 175 166 175 176 50 176 51 
51 177 6 179 178 160 178 179 33 
32 6 177 33 32 178 177 178 32 
176 160 178 177 51 176 178 177 176 
162 180 156 181 161 180 162 54 181 
180 162 181 183 182 161 34 182 183 
179 182 34 183 35 34 7 184 55 
184 181 55 184 7 35 35 183 184 
161 181 183 184 183 181 34 33 179 
185 161 182 160 185 179 182 179 185 
186 180 161 174 156 180 159 174 186 
180 186 174 175 187 160 172 159 187 
155 172 175 187 175 172 186 187 159 
185 160 187 161 185 186 187 186 185 
31 30 214 29 195 30 197 189 196 
190 197 198 196 198 197 28 4 198 
43 42 190 4 43 198 198 43 190 
29 28 196 196 28 198 195 29 189 
189 29 196 199 14 209 13 14 199 
201 188 200 202 200 191 201 202 12 
200 202 201 40 0 202 202 191 40 
41 40 191 0 12 202 12 13 201 
188 13 199 201 13 188 203 41 191 
190 42 203 203 42 41 204 191 200 
205 200 188 192 204 205 200 205 204 
197 190 206 207 206 192 189 197 207 
206 207 197 204 192 206 203 206 190 
191 204 203 206 203 204 208 188 199 
193 208 209 199 209 208 14 15 209 
15 2 210 212 193 211 211 49 212 
48 210 2 49 211 48 210 48 211 
209 211 193 210 209 15 211 209 210 
195 189 213 214 213 194 195 214 30 
213 214 195 216 194 215 50 216 215 
212 50 215 216 50 51 6 31 217 
217 31 214 217 51 6 51 217 216 
194 216 214 217 214 216 50 212 49 
218 215 194 193 212 218 215 218 212 
219 194 213 207 213 189 192 219 207 
213 207 219 208 193 220 205 220 192 
188 208 205 220 205 208 219 192 220 
218 220 193 194 219 218 220 218 219 
39 247 38 37 38 228 230 229 222 
223 231 230 229 230 231 36 231 5 
47 223 46 5 231 47 231 223 47 
37 229 36 229 231 36 228 222 37 
222 229 37 232 242 22 21 232 22 
234 233 221 235 224 233 234 20 235 
233 234 235 44 235 1 235 44 224 
45 224 44 1 235 20 20 234 21 
221 232 21 234 221 21 236 224 45 
223 236 46 236 45 46 237 233 224 
238 221 233 225 238 237 233 237 238 
230 239 223 240 225 239 222 240 230 
239 230 240 237 239 225 236 223 239 
224 236 237 239 237 236 241 232 221 
226 242 241 232 241 242 22 242 23 
23 243 3 245 244 226 244 245 53 
52 3 243 53 52 244 243 244 52 
242 226 244 243 23 242 244 243 242 
228 246 222 247 227 246 228 38 247 
246 228 247 249 248 227 54 248 249 
245 248 54 249 55 54 7 250 39 
250 247 39 250 7 55 55 249 250 
227 247 249 250 249 247 54 53 245 
251 227 248 226 251 245 248 245 251 
252 246 227 240 222 246 225 240 252 
246 252 240 241 253 226 238 225 253 
221 238 241 253 241 238 252 253 225 
251 226 253 227 251 252 253 252 251 

CELL_DATA 504
SCALARS scalars double
LOOKUP_TABLE default
-0.21173131695 -0.031238741411 0.84877387912 2.8136857353 1.5357005446 2.5971222458 6.1792760163 7.5791062295 4.8641341767 
0.14565173792 1.0128592752 0.30425364954 -0.18335298715 -0.63157441995 -0.034690161475 0.86686431672 2.8370448973 1.0758068663 
1.604185171 7.534508312 4.8444682718 6.1859611761 2.7191564428 0.15688164269 0.33559446437 -0.20856740378 5.8979504663 
5.8994019647 6.2213976573 2.8963526971 0.55809733712 1.1061324412 1.3175313853 2.8853760059 1.101419018 0.53454110484 
1.3125538561 1.4236024281 3.3493024199 3.3521552542 3.246674341 -0.34485822678 -0.98040668762 0.0062890665036 -0.21255095144 
-2.3526798149 -2.758973823 -5.4979776608 -4.1674475766 -5.291025666 -4.5845597621 -1.9588835316 -1.3621001886 -1.9662159765 
-0.35284866527 -0.97109579244 -0.55969751917 0.036955278026 -2.747955095 -5.4980424575 -5.559183319 -5.2880029641 -2.0389643445 
-1.3786875134 -4.5648574028 -4.1543743761 -1.9247235971 -1.9314985239 -5.5598486216 -2.7179685734 -2.7224273059 -2.9776867129 
-0.66951201922 0.38187347458 0.25473230911 -0.16458782562 -0.68150234634 0.25313555812 0.3775075084 -0.15923870685 -0.062811018186 
-1.1650326369 -1.1634778162 -0.91448185691 -0.22596574327 -0.035070781561 0.91611257825 3.0194763079 1.630759792 2.4501375069 
6.4721470529 7.6957834267 5.1853594632 0.13877058121 1.0446278428 0.28245586869 -0.1534203366 -0.62996536361 -0.038580753753 
0.93230880683 3.0460355032 1.1057371394 1.7112702783 7.6767561408 5.1819867369 6.4870815989 2.5410111229 0.15185041229 
0.31685097875 -0.18035150826 6.1982828954 6.2042359024 6.5420328064 3.1672359749 0.63575676443 1.2132626949 1.4084161064 
3.1543023901 1.2082542496 0.61132625056 1.4033277401 1.5254613501 3.6091324699 3.6126608663 3.5188305412 -0.36564969414 
-1.0419393767 -0.016539414162 -0.22812425693 -1.7407558046 -2.9747814011 -5.8605617573 -4.2651253582 -5.6563664186 -4.9678818693 
-2.1506600433 -1.358705953 -2.0830301529 -0.3769036333 -1.0321151919 -0.55618667282 0.018047722482 -2.9625579021 -5.8605754564 
-5.9130071056 -5.6499119035 -1.428522635 -1.3895377283 -4.9334320988 -4.2311965062 -2.112656316 -2.0494145581 -5.9140703689 
-2.9642094477 -2.9689102632 -3.2135282432 -0.74700701466 0.38272659473 0.25752276629 -0.16060956018 -0.75989275123 0.25589076985 
0.37855803823 -0.15478373488 -0.054655341441 -1.247299264 -1.2455920528 -1.0071216066 -8.886326566 -6.3998355637 -9.5456656244 
-9.5112590468 -9.4494758572 -8.4801139102 -7.6154413427 -6.4346425941 -8.7620709096 -6.142541765 -9.6410968212 -8.5603486576 
-8.550904423 -8.7278578909 -6.4380514025 -9.5605389112 -9.5052937893 -9.6276946043 -9.4562104965 -6.4657104841 -8.7505043238 
-7.6086474704 -8.5367895957 -6.180481006 -8.6220448279 -8.6132292963 -7.881214645 -7.8791648778 -7.6095171749 -9.4772195785 
-9.7258347101 -9.9143658196 -9.8594602116 -9.4796762613 -9.9141785505 -9.7175456472 -9.8589442696 -9.885486512 -9.3528695425 
-9.3517246204 -9.3896457533 -9.3658551642 -9.7820905397 -9.3685886816 -8.9479326925 -3.498925066 -9.5170916032 -8.0069173994 
-8.9435819685 -8.1462028502 -8.4915941825 -9.602386131 -9.2869764198 -9.646256254 -9.3392384403 -9.7773563827 -8.6963978347 
-9.3422452991 -9.5209562817 -8.0069162353 -7.9725539291 -8.1501176017 -3.4264219701 -9.2725181942 -8.9572115108 -8.5047544103 
-9.6047017652 -9.6477340635 -7.9718883525 -9.5207616968 -9.5197177913 -9.4442919521 -9.8877123586 -9.7262632198 -9.9807789359 
-9.9159573936 -9.8899147703 -9.9815342868 -9.7359587578 -9.9191109352 -9.9997739667 -9.9095622062 -9.9094454252 -9.9466442154 
8.6515022177 5.9853536705 9.4186587749 9.5983264098 9.3866384471 8.4614196999 8.0268639629 7.2517617071 9.0252288513 
5.6142798231 9.5669184198 8.3567612826 8.345907779 8.6552897764 5.7491270204 9.4392762607 9.5933580677 9.6104537469 
9.4021582304 7.2305585195 9.0130137624 8.0223842435 8.520436651 5.3449509684 8.4399246765 8.4283682807 8.2041518048 
8.2033161059 7.9595675779 9.5731983712 9.684518906 9.9285803883 9.8622465043 9.5751248079 9.928161364 9.6733628148 
9.8609833601 9.903697592 9.4613638542 9.4603410849 9.5017055023 9.224032843 9.7516763614 9.2277516615 8.7428535637 
2.1245021516 9.6068278618 8.321650043 9.3151433833 8.513396071 8.8214198222 9.6388807599 9.0696067259 9.622888099 
9.1899967992 9.7434324005 8.5544450153 9.193709147 9.6105066256 8.3215101803 8.2871562241 8.5193710087 2.6490184927 
9.0453458291 9.3346788322 8.8339195708 9.6378428162 9.6219903227 8.2868978835 9.6172201446 9.6162436465 9.5429927028 
9.8801485412 9.6740444904 9.9770767533 9.8970395758 9.8834958639 9.978042046 9.6862304964 9.9012771561 9.9996055746 
9.9209017359 9.9205771843 9.9604043241 0.1949077237 0.025989323297 -0.82711853062 -2.6102624457 -1.2347403375 -1.6851334485 
-5.9896902335 -7.2092087119 -5.0245948585 -0.17632459012 -0.90297038601 -0.30664981803 0.17279210297 0.62521651184 0.032744291521 
-0.84548612906 -2.7104482815 -1.0264426261 -1.495346183 -7.3600495911 -3.9866283803 -5.9633276194 -2.7991246587 -0.15952367055 
-0.33588447221 0.21525132366 -6.0602275993 -5.6099086565 -6.0497613236 -2.7721469431 -0.52059827739 -1.059506045 -1.2759854432 
-2.7222237737 -1.0429887471 -0.47541227012 -1.2572585094 -1.3726658173 -3.2195920712 -3.2382402007 -3.1446055139 0.34816514903 
0.96946099459 -0.020520979964 0.20745394054 2.2877393323 2.7324821211 5.6269713377 4.4394517174 5.1363020791 4.2787304643 
1.868475493 1.3354855823 1.9250655641 0.35758028547 0.94946260866 0.54958549471 -0.058474995483 2.6850560267 5.447977495 
5.5213930119 5.2763672403 2.3429376344 1.0798484379 2.457130206 4.440200346 1.825476007 1.7937941214 5.6434888827 
2.6688746885 2.760659207 2.969074499 0.6422020865 -0.37713429153 -0.24458445188 0.17661367528 0.67324163339 -0.24233357263 
-0.37201603896 0.16858952481 0.075195349588 1.1574572875 1.1481824661 0.90673137448 0.17499689473 0.024408594775 -0.85426279917 
-2.5984028838 -1.1582994329 -1.3592239251 -5.9738219524 -7.136085758 -5.0102527437 -0.17822510935 -0.84467648417 -0.28602349653 
0.14794101844 0.60124854351 0.032237683806 -0.86840796096 -2.6981226038 -0.98565682737 -1.4326330404 -7.3062389597 -4.1248705737 
-5.9372927328 -2.4912578055 -0.1624218658 -0.31764374136 0.19382265878 -5.978817119 -5.6601656171 -6.0385230077 -2.7664524826 
-0.51630808555 -1.0525562319 -1.2721287714 -2.7259503909 -1.0373080714 -0.47280738518 -1.2551169047 -1.3663422889 -3.2208571604 
-3.2350373071 -3.1414853629 0.37035513291 0.96576173224 -0.044412992615 0.19189404329 2.2595562604 2.7330514848 5.6017560041 
4.1578613656 5.2155070089 4.4363739867 1.8736390087 1.1699095471 1.9026210972 0.38271732282 0.94542601794 0.52248026911 
-0.087252451479 2.6885451941 5.5342431844 5.596632099 5.2920831253 2.3165243297 0.94726351775 2.3087266817 4.4371993138 
1.808377933 1.7627377832 5.6341746616 2.6872522561 2.7494218073 2.9722097647 0.63580401356 -0.37618971236 -0.24376438702 
0.17954482917 0.66572175588 -0.24150781653 -0.37113813307 0.17127369598 0.075973325628 1.1524032353 1.1438591019 0.90225048101 

