# vtk DataFile Version 5.1
vtk output
ASCII
DATASET POLYDATA
POINTS 1244 float
0.0779438 0.105481 0.140047 -0.0279924 -0.0683412 9.94928 -0.0613592 10.0935 -0.188488 
0.172226 9.81219 9.8372 9.83471 0.124008 0.0892304 9.99063 -0.106283 9.86969 
9.95019 9.92184 0.00478048 9.91537 9.91188 10.0155 -0.0858063 -0.0875007 0.99358 
-0.585415 -0.617329 2.11949 -0.0821496 -0.095223 2.82753 -0.381629 -0.345536 3.94123 
-0.290419 -0.299947 4.99151 -0.357143 -0.37159 5.99657 -0.29651 -0.299725 7.03355 
-0.329676 -0.350048 8.03103 -0.153606 -0.0401377 9.04617 -0.0742528 0.925793 -0.143864 
-0.160864 1.98981 -0.178358 -0.103506 2.97145 -0.109162 0.0201874 4.04054 0.028444 
-0.240745 4.95848 -0.236733 -0.154554 6.02784 -0.15584 -0.20518 6.98226 -0.207976 
-0.229106 8.02098 -0.23672 -0.196843 8.92556 -0.280773 -0.206712 10.1819 0.941671 
-0.229685 9.92634 1.97381 -0.127113 9.80807 3.00122 -0.238126 9.8907 3.9448 
-0.281296 9.89205 5.00024 -0.10148 9.71069 6.03842 -0.306891 9.80789 6.9916 
-0.0876937 9.84104 7.98418 -0.197988 10.039 9.05793 -0.143105 0.970578 10.0357 
-0.230971 2.05302 10.0158 0.0644632 3.01221 9.71521 -0.0464547 3.9359 9.85842 
-0.110789 4.99661 9.82554 -0.0345452 6.0438 9.84712 0.0234067 6.95635 9.77499 
-0.0177184 7.93664 9.83098 -0.131276 8.98442 9.97289 9.92101 -0.0363964 1.05931 
10.0436 -0.53265 1.94214 9.82089 -0.240539 2.98876 9.92899 -0.444074 3.9614 
9.91833 -0.534367 5.00779 9.9663 -0.258225 6.06235 9.85823 -0.366402 6.98979 
9.97624 -0.355424 7.92012 9.94197 -0.123213 8.93882 9.83359 1.02791 0.00753579 
10.04 2.05448 -0.285652 9.75029 3.0358 -0.00300358 9.82975 3.94095 -0.0347249 
9.82697 4.98874 -0.0887667 9.8176 5.97988 0.00747842 9.79533 6.97973 0.0731469 
10.0171 8.01241 -0.197745 9.93212 9.03276 -0.0548296 9.89178 9.87833 0.825125 
10.0621 10.0096 1.92849 9.72181 9.71411 2.94153 9.70783 9.79551 3.96886 
9.73687 9.72096 4.99064 9.76549 9.86061 6.07619 9.79238 9.85883 6.9478 
9.79818 9.88003 7.98933 10.2142 10.1902 9.0732 9.986 0.918704 9.97117 
9.94242 2.09716 9.93645 9.80244 3.05112 9.80842 10.0302 3.91256 9.98893 
9.81856 5.00419 9.80447 9.85904 6.09972 9.85019 9.69421 7.03372 9.68524 
10.1507 7.83646 10.1188 9.92364 8.91086 9.98858 0.881163 -0.220765 -0.270834 
2.0365 -0.0646821 -0.0568605 3.12402 -0.131713 -0.187959 3.89204 -0.213222 -0.239919 
4.97625 -0.153366 -0.141132 6.02038 -0.179421 -0.103089 6.95749 -0.030751 -0.129091 
7.94639 -0.360585 -0.274027 8.98147 -0.15599 -0.183287 1.00108 0.00526845 9.89045 
2.00887 -0.0559957 9.79004 3.03579 -0.237811 10.1903 3.98146 -0.0360672 9.72047 
4.96151 -0.0535136 9.87235 6.01154 -0.137028 9.82143 6.98462 0.128961 9.78792 
7.93742 -0.253279 9.87407 8.92852 -0.149285 9.83428 0.958842 10.0269 -0.048904 
2.03049 10.0887 -0.228553 3.01681 9.76156 -0.179882 3.9476 9.8969 -0.225074 
5.01201 9.80352 -0.142118 5.99064 9.93358 -0.0499775 7.00838 9.74154 -0.03636 
7.99223 10.2631 -0.330628 9.04493 9.8638 -0.122041 1.03664 10.0173 10.008 
2.09309 9.93645 9.81762 2.92079 9.91042 9.7213 3.98892 9.78107 9.76758 
4.95047 10.1678 10.0727 6.01646 9.71483 9.63886 6.99235 9.62704 9.76406 
7.9625 10.0997 9.89359 9.03969 10.1795 10.0968 -0.226246 0.334024 4.99957 
-0.224755 0.32987 1.9101 -0.0340214 5.65311 1.91575 -0.0995393 8.30024 3.46977 
-0.144244 8.33815 0.396938 0.0326027 5.65852 8.0911 -0.107781 8.39106 9.56798 
-0.117629 8.30666 6.56416 -0.279 0.310249 8.09286 -0.0976761 2.93271 9.60888 
-0.145708 2.97683 0.375978 -0.0599881 5.65192 5 -0.034882 2.97792 3.45639 
-0.0374716 2.97857 6.5434 -0.0447066 0.302549 9.44873 -0.151682 0.320168 6.54317 
-0.153613 0.319196 3.45798 -0.151815 0.291626 0.29832 -0.0718787 4.30599 8.81497 
-0.0732773 5.62513 9.50309 -0.104003 6.97379 8.83481 -0.0133214 6.98892 7.31412 
-0.00497061 8.32644 8.07377 -0.108167 9.61521 8.79039 -0.31006 9.5092 7.32234 
-0.363133 9.46882 5.76016 -0.0872918 4.31379 1.14617 -0.064059 5.64848 0.391012 
-0.0131304 6.98899 2.68448 -0.10143 6.99047 1.15248 -0.118876 8.30273 1.90688 
-0.148237 9.40009 4.25275 -0.229976 9.52013 2.6756 0.0714326 9.5655 1.14254 
-0.0464392 8.32571 4.99123 -0.0545449 6.98925 4.22795 -0.040632 5.652 3.45644 
0.000227902 6.98448 5.77415 -0.0472846 5.65229 6.54298 -0.0415312 4.31447 2.68724 
-0.0345706 2.97533 1.91348 -0.0779161 1.63661 1.13714 -0.00216763 1.64097 2.68417 
-0.0177175 1.64091 4.22368 -0.020089 4.31268 7.31396 -0.0431089 2.98471 8.08245 
-0.0126882 1.64312 5.77355 -0.0230408 1.64095 7.31367 -0.0688784 1.62076 8.84978 
-0.0544606 2.97802 4.99998 -0.0576167 4.31488 5.77197 -0.0565146 4.3149 4.22804 
-0.164629 0.332347 8.85932 -0.342012 0.346931 7.31957 -0.219119 0.326818 5.78734 
-0.253359 0.336688 4.21332 -0.221733 0.32339 2.67986 -0.158643 0.34514 1.13473 
-0.201622 3.61709 9.25545 -0.069019 4.33372 9.50083 -0.149366 4.98133 9.20711 
-0.0839795 4.98274 8.43832 -0.131911 5.66129 8.80607 -0.086617 6.31229 8.45065 
-0.0500344 6.32044 7.70053 -0.0421409 6.98261 8.08358 -0.174076 7.63925 9.24941 
-0.100014 7.66076 8.44922 -0.108785 8.32651 8.82638 -0.045141 7.65922 7.69396 
-0.0386947 7.65805 6.93427 -0.121933 8.31039 7.31653 -0.0948556 8.91758 9.22804 
-0.0705487 9.48244 9.48918 -0.282523 8.92211 6.93824 -0.239661 8.9031 6.17499 
-0.155642 9.47019 6.52293 -0.177462 9.6176 8.12989 -0.271728 8.9411 7.70269 
-0.19749 8.94735 8.47213 -0.113512 7.02633 9.5999 -0.177307 6.34756 9.25441 
-0.137161 3.64273 0.760337 -0.111968 4.3204 0.391469 -0.0720782 4.98302 1.52746 
-0.129348 4.98332 0.756708 -0.100681 5.65324 1.14996 -0.0336801 6.32211 2.29959 
-0.0437091 6.32219 1.52855 -0.00133963 6.98891 1.91339 -0.0530055 7.65279 3.07921 
-0.0401468 7.64829 2.29517 -0.0612169 8.31686 2.68973 0.0330378 7.65351 1.52773 
-0.115889 7.65236 0.769276 0.0754746 8.3087 1.12697 -0.301913 8.88424 3.78777 
-0.143436 8.9416 3.03421 -0.319822 9.49227 3.47979 -0.128347 8.92174 0.776326 
-0.317109 9.42681 0.449514 -0.398981 9.56781 1.91628 -0.0394845 8.93761 1.54243 
-0.239526 8.95366 2.29965 -0.17349 6.98374 0.404546 -0.0806273 6.32307 0.758341 
-0.41106 9.55225 5.01396 -0.208473 8.8197 4.65732 -0.102992 8.32824 4.22999 
-0.173352 8.84424 5.34561 -0.0920273 8.31868 5.76452 -0.0238492 7.65891 3.8403 
-0.0374525 6.98793 3.45655 -0.0420702 6.32044 3.07074 -0.0397014 5.6524 2.68727 
-0.0497163 6.32043 3.84214 -0.0574203 6.32042 4.61404 -0.0568088 5.65193 4.22803 
-0.0304149 7.65392 6.15832 -0.0193706 6.98811 6.54255 -0.0567704 6.3205 5.38598 
-0.0435888 6.32026 6.15768 -0.0591243 5.65194 5.77197 -0.0269046 6.32046 6.92863 
-0.0191458 5.65439 7.31301 -0.0401084 6.98753 4.99885 -0.0928858 7.65367 5.38347 
-0.00347072 7.65822 4.60991 -0.0411227 4.98331 2.2999 -0.0500279 4.31333 1.91614 
-0.0397505 3.6442 1.52778 -0.113991 2.97879 1.15209 -0.0349845 3.64425 2.29931 
-0.0397747 3.64644 3.07063 -0.0256832 2.97761 2.68485 -0.216059 2.3085 0.76921 
-0.124587 1.62014 0.397437 -0.0760116 0.972469 0.764692 -0.0978955 0.975628 1.5246 
-0.028086 2.30984 3.07029 -0.0441797 2.3094 3.8418 -0.0357509 1.64132 3.45796 
-0.079552 0.97769 2.29797 -0.13431 0.979064 3.06644 -0.0872874 0.982119 3.83991 
-0.0859094 0.976298 4.63105 -0.0181016 1.63826 1.91725 -0.0316447 2.30996 2.29908 
-0.0383756 2.30976 1.53072 0.00241276 4.98226 7.69535 -0.0148506 4.30954 8.08801 
-0.0471145 3.64587 6.92945 -0.0321984 3.64333 7.70077 -0.0277665 2.97855 7.31606 
-0.0849252 3.65123 8.44818 -0.095975 2.98126 8.83275 -0.00420332 2.31069 6.1561 
-0.0575622 2.31284 6.92726 0.0091516 1.64046 6.54557 -0.123932 0.982847 5.3623 
-0.12133 0.983701 6.15812 -0.157436 0.980512 6.93254 -0.0303672 0.971977 7.69639 
-0.110423 2.32387 9.23069 -0.13102 1.59592 9.56358 0.0126184 0.984298 8.44821 
-0.118336 0.989823 9.24269 -0.0764413 1.6377 8.08043 -0.077568 2.30663 8.45405 
0.0386609 2.31181 7.70107 -0.0367298 1.6398 4.99991 -0.0513805 2.31069 5.38684 
-0.0528331 2.97831 5.77184 -0.0302382 2.31046 4.61385 -0.043965 2.97794 4.22802 
-0.0469924 3.64639 6.1578 -0.0326967 4.31462 6.54336 -0.0452518 4.98321 6.92721 
-0.0505712 4.98339 6.15744 -0.0601482 4.98341 5.38596 -0.0462925 3.64642 3.84217 
-0.0378935 4.31488 3.4565 -0.0585635 4.98342 4.61403 -0.0475535 4.98342 3.84217 
-0.0484027 4.98344 3.07123 -0.0596259 4.31491 5 -0.0565306 3.64639 4.61403 
-0.0580239 3.6464 5.38596 9.97075 0.290262 4.9977 9.85791 0.29959 1.91959 
9.97373 5.6519 1.91285 9.93295 8.31922 3.45285 10.0177 8.31442 0.375367 
10.0114 5.65296 8.07863 9.93665 8.33972 9.61872 9.94592 8.31867 6.54541 
10.1578 0.272443 8.03428 9.89243 3.00162 9.55689 9.8942 2.96283 0.360864 
9.9407 5.65192 5 9.94267 2.97795 3.4561 9.94416 2.97793 6.54379 
9.93636 0.272114 9.62342 9.91983 0.328481 6.57131 10.0195 0.284114 3.44757 
10.0884 0.27715 0.33125 9.99146 4.33208 8.81357 9.92927 5.61453 9.41543 
9.9893 6.99742 8.83596 9.94895 6.98896 7.3154 9.96671 8.29328 8.07314 
9.98525 9.272 8.5712 9.89527 9.47336 7.2862 9.94551 9.38416 5.81664 
9.96609 4.31211 1.14865 10.0815 5.68127 0.342036 9.96148 6.98915 2.68479 
9.98404 6.98994 1.15546 9.91006 8.32519 1.9146 9.95224 9.40699 4.15864 
10.0181 9.45451 2.72607 9.97358 9.45613 1.17018 9.91729 8.32107 5.00181 
9.94561 6.9889 4.22799 9.94678 5.65192 3.45616 9.94509 6.98891 5.772 
9.94201 5.65197 6.54385 9.94966 4.3149 2.68411 9.97498 2.97889 1.91368 
9.95988 1.64307 1.14578 9.9738 1.64179 2.68435 9.94522 1.64093 4.22738 
9.94295 4.31449 7.3157 9.97694 2.9776 8.08374 9.95325 1.64166 5.77274 
9.94873 1.64122 7.3148 10.0007 1.62686 8.7995 9.94118 2.97794 5 
9.93842 4.3149 5.77193 9.94039 4.31491 4.22807 10.0615 0.376305 8.84191 
9.96539 0.290473 7.31033 9.92414 0.335857 5.76222 9.99832 0.309604 4.22653 
9.89612 0.30054 2.71316 10.1144 0.344136 1.11889 10.0208 3.62193 9.24445 
9.88689 4.30298 9.48809 9.99083 4.97981 9.26397 10.0172 4.98301 8.46266 
9.96587 5.63013 8.79853 9.99073 6.32934 8.46371 9.96181 6.3217 7.70156 
9.96307 6.98862 8.08687 9.9907 7.64343 9.26361 9.96024 7.65337 8.46821 
10.0192 8.27515 8.85282 9.9528 7.65677 7.70125 9.94746 7.65693 6.92979 
9.95577 8.32044 7.31764 9.78231 8.82061 9.19954 9.86308 9.38953 9.25674 
[...]
CELL_DATA 2484
SCALARS scalars double
LOOKUP_TABLE default
0.61442121228 1.4583304556 0.44090320517 0.72614227235 0.68405565201 0.37504215665 2.5627320786 2.1860077447 1.7844548556 
-0.54328026311 1.0021399142 2.3397778578 1.6939923072 -2.891259195 -0.5220514022 2.8960686229 -1.6684999941 -6.4122476471 
-3.4508117009 -1.3777454771 3.5712197875 1.5373664807 1.005804303 0.94668532445 -1.9012378164 1.8304052197 -0.14413510517 
1.1538839161 -0.6490983023 0.77129891337 0.52724519414 -0.24423131878 -1.1911728955 -0.60679163003 0.9000651521 -0.94096215357 
-1.5260624872 0.2131845859 0.33386670889 0.39803887532 -0.46595902512 0.90586214826 0.64231909338 0.38481343332 -0.42658847726 
-0.27714449283 -1.2365075769 -1.2181815606 1.0089540906 -0.26097455581 -0.40511390002 -0.46047869943 -0.066296620101 0.16649847236 
-1.2347829038 0.68215810024 1.5694865757 -2.1448639916 3.7013355882 -2.3069174786 0.80286289033 -0.18103932025 1.8201617993 
2.3397564804 5.9675493882 -1.676282406 -1.8635604457 2.8311282322 -0.56969953487 -2.661303357 4.2200038894 -2.5638166174 
-3.1519945135 -2.4244531987 0.66980819529 -2.1439300666 0.24062911155 -0.66177765219 -3.4871522068 0.82862418319 0.38447833029 
0.7822174403 -0.31584888073 -1.0139162361 -0.6764967391 0.39977029345 -0.54429237512 -1.1599066636 0.077366423497 0.72090589474 
-0.7250116383 -0.22113587824 1.0337074322 0.98904161276 0.41223858698 1.2558257169 0.55122279023 -3.0155716125 -1.0864438544 
-0.19539458118 0.063292532842 0.7111413853 -0.0082314613114 0.6317600188 -0.88301473054 1.5483114467 -0.43952891793 1.0240426015 
-0.069515013769 0.3960627944 -0.12257602196 0.55945056634 -0.50419655842 -0.41612034788 -0.75362381837 -0.21902302763 0.89676704999 
-0.85130566737 1.1848986484 1.7834576638 -1.7407615968 1.2609611264 -0.49935107053 -0.036089529399 -2.1229235102 0.85708519294 
-2.1678032894 -1.367949021 -2.041600168 4.2032636639 3.5280988024 -0.46310405617 -0.084558912296 -0.14816772612 1.3094086789 
-3.1501609171 -4.8515672108 -2.1031489633 2.33186771 4.1467294757 3.866423629 2.3865306925 2.0975895065 -1.5552180776 
-0.17543003865 -2.5262780904 -0.68469629377 -2.2565003137 -1.0262269909 -1.9638669351 -0.25406856671 -1.2190633578 -1.7679069056 
-3.7615908382 0.33585963579 0.20482222955 -0.21567235446 -0.82159060338 -0.5926506523 0.017182863582 0.35740579721 0.57837285608 
-0.82470067363 -0.87782647565 -0.50081200177 0.4088869893 0.24476059571 3.5849075616 1.8387626552 5.7541505861 3.1912216576 
-3.3126346617 -2.675510817 -2.7703744733 -2.5407280213 -1.9877784651 -2.2190710688 -2.0207180998 -2.7504169474 -3.0686474708 
-1.1364970826 -2.9271936179 -0.94939950636 -0.41248650671 0.32952230918 -0.016419781826 0.37020252594 0.047314843937 -0.02850504018 
0.026958932934 -0.014621080833 -0.014926403319 0.014633555587 0.048479538053 -0.078703523217 0.0556639558 0.25086388838 0.12645617862 
-1.2637132506 -0.31196202416 -0.33429298483 -0.22668703818 0.75615968581 0.041667106836 0.14383662963 0.13381819295 0.37556326239 
0.094180206779 -0.84837166001 -0.28916235188 0.18006186829 0.15805990015 0.51017287612 0.23782907266 0.043268757127 0.55141759316 
0.15124575345 0.25458221199 -0.91375368069 -1.1188210461 0.34808861823 -0.44723913237 0.61061558145 -1.0572574847 -1.1731527166 
-1.3236789646 0.016442486782 0.65419301972 -1.0823528916 -0.12363363607 0.3353352817 -0.048336426648 0.069854742103 -0.096569822871 
0.013268898719 -0.10758966536 0.52186981387 0.39602443053 -0.061831976502 -0.072759827331 -0.14192881324 -0.17512438122 -0.041819186173 
-0.16156672472 -0.43341532535 -0.18941640429 0.64233210943 -1.6626793448 0.58981063861 -1.229781118 0.13306646854 1.2136974955 
1.4522859974 1.1366154011 -0.3862686297 -0.80774460795 0.018818958621 1.1598185738 -0.73742774099 -0.13684301663 -0.26123321863 
-0.0063113052542 1.5598677976 2.1549045268 0.80880288832 1.7245955579 1.0358036138 1.7417713 2.3208572734 2.5110238758 
0.64916596243 0.91443623801 1.717712288 1.1222648376 2.057224525 1.0419560469 0.7465177815 1.0590459736 -0.4137351707 
-0.03282651817 0.02275542023 0.062620175164 -0.75507313001 -0.53759373906 1.2795129757 0.18509799785 0.0067923842191 0.13884572183 
-0.32013906406 -0.25137052382 1.1128107957 0.29668826208 -0.61401405935 -0.41874218353 0.29304482347 -0.21710063856 0.049404383488 
-0.17817940422 0.97150037283 -0.23948432493 -1.5617135402 -0.67257053285 -0.24102076724 0.63375082282 0.2204789097 0.67136573811 
-0.096785005178 -0.034924485986 -0.75176137929 -0.59786618412 1.6429277364 1.5012840632 0.97161986849 1.4554494736 1.0475714744 
1.3331586002 3.9866838111 3.6334098437 0.18709322269 2.2189061116 1.7862278844 2.1988168389 4.02264468 -0.11658079644 
-0.82624442773 -0.48999523903 -0.2382752001 3.3539532131 -0.45875395055 1.6274234302 -1.1648364702 0.2461026783 3.7576818063 
-1.0626653059 -0.043326150393 -1.3126061797 -0.28879727434 -1.0244712012 -0.36552874195 0.21459140069 0.12205721955 -0.035783625517 
0.19992209368 -1.0998525479 0.37392196141 -0.27622038662 -0.3348296805 1.3043072037 -0.070871096288 0.8294104352 1.8422287612 
1.4781467685 0.87307186033 1.0285019929 -0.22385830395 -0.61241872977 -0.033924348744 -0.37445216478 -0.29229114281 -0.28408484523 
0.071209467928 -0.10117056858 -0.20456015785 -0.044221484404 -0.39808344784 -0.060618459766 -0.14352023075 0.3103091039 0.027518442997 
0.21471335559 -0.01734420482 0.057275458877 0.17904021836 0.032192523293 0.033808625644 -0.039381620746 0.0088549140293 -0.056356930279 
0.0093025416141 -0.080822396924 -0.28115947094 -0.22736357189 -0.12192208632 -0.013595030173 0.00084600493675 0.076904911834 0.051706208461 
0.0024679826277 -0.017429229402 -0.056107419403 -0.048543805815 0.12315622372 0.063828149701 0.075887538869 0.10987627936 -0.12988956004 
-0.005261422875 -0.15083068707 -0.0094573648284 -0.0073776067123 -0.022838741884 0.0040394324901 -0.076339323555 -0.10274791915 -0.10945703899 
-0.11136556456 -0.076427160947 -0.065501520891 -0.027596172529 0.0048550075751 -0.042139970161 -0.0089370230083 -0.023031693789 -0.035131917733 
-2.9290126381 1.0733953082 -2.042955632 -2.0732942674 -2.2536827784 -1.2842752552 -0.19748850332 0.73781899374 0.42267164783 
-1.0052205557 -0.62978316098 -1.0215163899 -2.2860962134 -2.1845641561 -0.26197948813 2.1738509355 -4.5415640248 -7.5596668577 
-0.62651440608 -4.6944295915 2.1628639772 -0.92353753456 -0.62513101981 1.4000098166 -3.0947344978 1.3597644898 -1.7520461836 
2.2648736197 -0.21873591481 0.81906239239 0.45706880454 0.62006321466 -1.0203010636 1.6337181011 0.20163210412 -0.45020001994 
0.52279489128 0.21774663066 0.086804082036 0.20130597897 0.22974458314 0.23559912452 -0.52213637629 -0.70317236996 -0.01773829934 
-0.13114406217 -0.050667873842 -0.084748676131 -0.16140801699 0.048050322678 0.24492193308 0.097979408409 1.455079363 -1.573667733 
1.7371752268 -1.2280598026 -3.5907553484 -3.4848963903 0.10269036465 0.15232967808 2.2406228274 2.1276310182 3.5624518299 
2.4930192456 2.1702077948 -1.2336368335 0.84273204161 -1.2470857929 1.0025969948 -0.073203806448 -0.7445717554 0.23149058324 
-0.060044077905 0.069754541528 -3.3420263046 3.2194223134 3.5960166711 3.8664152971 1.543633658 -1.3065068687 2.4281557585 
2.2560315898 1.8717368112 -1.3346031144 -6.1354069992 0.064646864125 -0.05376922662 -0.78597903895 -0.38315289939 -0.44780490768 
-0.47358229299 1.1977953887 1.4245780007 2.365350988 -2.0912223189 -0.9409468947 -0.40146648813 -0.22644071901 -2.7684590299 
-0.80430288998 0.36749470005 -0.11017345979 0.351988548 0.6418678866 1.6625042918 -2.0393357636 -0.27368255317 -0.18113570583 
0.036894862599 -0.12678686842 0.019074235479 -0.083141437662 0.11813223732 0.26316799818 0.7380134007 0.52205441297 0.15327732657 
0.8001503414 -0.027741524234 0.64753506257 0.87648725176 0.098180561679 0.080053749831 0.1186659426 0.44029737796 -1.1099334498 
-1.1546591542 -0.66709441063 5.3776348122 7.7204509998 7.8165903456 5.7473680353 0.71987186889 0.90532524206 -0.25289408752 
0.92699511863 0.97216697908 1.3106622491 -0.31229617342 -0.11995534584 -0.34924893353 -0.91590360115 5.2159437577 -0.030096720353 
0.55188293995 0.0010524401493 -1.5128448438 -0.80980252139 0.11572252946 -0.36299988178 -0.24304807055 -1.1908770224 -2.1685498638 
-2.0262454383 0.77262592913 0.91196515369 -3.1893553194 -2.32324005 -0.5177130621 1.8494913402 0.049917340295 0.71943721769 
4.238025083 -1.5909127028 0.61714504685 0.89625186003 -0.5246096875 5.4057668 -0.70677434976 3.8754460085 5.4043073026 
0.88309703799 -0.32486267656 0.57208488204 0.416995684 -0.98472511913 0.21401448928 -0.18031443719 -1.0129759692 0.9432215179 
0.15726879351 0.49136649463 0.18618452863 0.16419535909 -0.011734028181 0.029135367003 -0.017789317695 0.072944208743 -0.11698377629 
-0.043497949261 -0.010597306879 -0.027372527757 -0.035557766017 -0.045612072125 -0.093376440731 -0.0041673405983 0.082829503321 0.086519936712 
-0.018542748447 0.10744214714 0.052931581533 0.12535482624 -0.020697131017 -0.012882213778 -0.067685322574 -0.04530257155 0.11073786341 
-0.095109858211 0.26503919603 -0.13883316424 -0.095322652009 -0.0017152617649 -0.047955445433 -0.069967717846 -0.028460359519 -0.031792788065 
-0.0042203136461 0.0051132781297 -0.10065589426 -0.1391789452 0.37553473465 -0.067161526305 -0.08000265798 0.21867993989 -0.012422778388 
-0.18153130295 0.61543866276 -0.16114155519 -0.27064860888 -0.23899815004 0.15011304399 -0.60854092653 0.045926617462 -0.18357951274 
0.53257633633 -0.73313856976 -0.5595038854 -0.31718638647 0.048884364766 0.068036579636 -0.024514630968 -0.04503593767 -0.17139467577 
-0.039613711426 0.68966628243 0.22437130345 3.4585867171 -0.93691072823 1.7292701484 -1.3630501917 0.27169521091 1.9543627646 
-0.092493832716 2.093092071 0.2597243092 -1.9061720319 0.046974655794 2.560949657 -0.6848232904 0.31921547213 0.18982088415 
0.30420622992 -0.249520552 -1.5199592052 0.34655744166 -0.87092496406 0.94586769593 -0.053588799966 -0.28939961006 -0.14963626118 
0.68725969101 0.84811127899 -0.55699140802 0.096123019331 -1.8126174628 0.091398907291 0.28475364926 0.11941146509 0.39636766448 
0.035162431269 -0.24595494898 -0.038936572261 -0.42255714768 -0.21825812221 1.2062312473 0.13436485675 -0.30802931829 0.078641540688 
0.432907818 0.32465394489 -0.36793228178 0.097628482102 -0.45459339781 -0.060081739882 0.14270044693 0.077363496106 0.065013244696 
0.021045504152 -0.094220106139 0.6739541488 -1.1418162772 0.5618262525 0.27805021825 -0.46025870994 -0.027500761155 -0.35931122698 
0.07254679157 0.2001860895 0.13386752177 0.30466967476 0.56759902579 -1.7377571806 0.045781439136 -1.0542553969 0.34089831167 
-0.26045477512 1.1639557222 -0.086690919089 -0.32082918325 0.0075882781218 -0.63620465691 -0.4513343066 1.7781502063 0.2014749717 
0.43598467526 1.1474310969 -0.14891883914 2.0488897973 -0.33845860485 1.1036266849 -0.97110604259 -0.70095338938 2.4721180973 
0.22466245412 -1.4205719479 -0.22538253929 0.41182230599 0.18274570092 -0.0082010033156 1.5666823317 -0.52744703463 -0.26152860603 
-0.13111686499 -0.0083201052751 0.016011633848 0.054013091002 -0.1882738275 -0.12991605087 0.28639381494 -0.0088205422309 -0.91422624994 
1.6657465254 0.83703301801 1.2317807829 0.095650157636 0.065014836103 0.055488255757 0.057842036704 0.019387472779 0.050859626777 
0.011449135356 0.032386557205 0.062127700408 0.054142890288 0.10035297104 0.096052436184 0.027574695209 0.045946228118 0.033700004055 
0.055195114163 -0.021835054004 -0.34315099179 -0.18119495241 -0.039871021832 0.0075424328325 -0.063417035364 -0.029384165294 -0.041380821441 
-0.10839657764 0.021230796045 0.12516695059 0.057839568527 -0.031643085916 -0.0040513329891 0.020696879759 0.020183186408 -0.0070575014049 
-0.022159446871 -0.035772689656 -0.014820021173 -0.035913452768 -0.08178280341 -0.12073124696 -0.079783796157 -0.037575862325 -0.001112164648 
-0.00021684845481 -0.012526336704 -0.021531229677 0.00081764150034 0.0020619781707 0.00072514458784 0.0090815672383 0.0085837362865 0.01675077142 
0.011435705193 0.026266772503 0.037566962453 0.041889169987 0.042136109833 0.018204540614 0.010625279149 0.0074982826745 0.0097764082901 
-9.6418029733 -9.5536851075 -9.5581419023 -8.9847485222 -9.697035184 -9.220446277 -8.2229117815 -8.5179850042 -9.3654649842 
-9.9944332759 -9.7096239606 -9.2013939185 -9.2692080977 -9.8553619509 -9.1436103981 -6.8127952973 -7.9679687947 -4.6399752279 
-5.7342119215 -6.4701865707 -6.8818990045 -9.3542094857 -9.864047186 -9.7806111533 -8.5821928156 -9.7994931745 -9.9247148465 
-9.7499874881 -9.9918089137 -9.9391374795 -9.9377606263 -9.9416471098 -9.798428424 -9.3509424391 -9.9428004025 -9.781407733 
-9.983996069 -9.9963272191 -9.9804117871 -9.9903877745 -9.8705596263 -9.9332383495 -9.9852352598 -9.8751106572 -9.9021394359 
-9.888077616 -9.9621699054 -9.8801720888 -9.8914189502 -9.8869513625 -9.9860131382 -9.871073153 -9.7625744988 -9.8796000002 
-9.3805616312 -9.7808776174 -9.787515803 -9.5975153535 -9.5014940883 -9.8158197433 -9.8942785509 -9.9001870771 -9.9927941709 
-9.9293161266 -9.6701419914 -9.6137556082 -9.818845954 -9.4764377496 -9.8725320582 -9.5527703851 -9.7487884864 -9.836094453 
-9.939228646 -9.928735662 -9.814013799 -9.9897741849 -9.9217447153 -9.9947020409 -9.9464998482 -9.8054652833 -9.8941053335 
-9.8565999121 -9.6720820656 -9.9401588349 -9.8466584388 -9.9487633453 -9.9811030461 -9.8972279404 -9.9042301967 -9.7159615949 
-9.6674407523 -9.6998019496 -9.9599678404 -9.806172547 -9.656599758 -9.1983351583 -9.8226040869 -9.9599171411 -9.8306875614 
-9.8970955773 -9.943448378 -9.9806124583 -9.8963801917 -9.9446568114 -9.967721309 -9.9903915688 -9.9035923233 -9.762980601 
-9.9939774502 -9.9903589052 -9.9518735969 -9.9813588049 -9.9911221043 -9.9867798272 -9.9827468973 -9.9891065684 -9.9363624176 
-9.9307675224 -9.9425324709 -9.9315898123 -9.943383769 -9.9359680589 -9.9887659601 -9.9504630916 -9.9457482206 -9.7672571961 
-9.8593965461 -9.7754276623 -9.9101059265 -9.6230440052 -9.7399521382 -9.907080999 -9.5990336538 -8.9187521661 -9.8880733886 
-9.7961636883 -9.4749555288 -9.4402769485 -9.1096398496 -9.0021908025 -9.1409183693 -9.7314062037 -8.0325120177 -9.9570579817 
-9.8433728296 -9.9459909144 -9.8322353423 -9.969205391 -9.9319909123 -9.9428987544 -9.8426031221 -9.7845872269 -9.9150823405 
-9.8423151292 -9.9292745364 -9.9388783749 -9.9507817213 -9.9299758823 -9.9814021862 -9.9935406685 -9.9453843505 -9.9672287469 
-9.934152719 -9.9376303953 -9.9088736907 -9.899444715 -9.9198316588 -9.9426821772 -9.7745653017 -9.801658399 -9.942829785 
-9.9007618865 -9.9221394568 -9.8795845031 -9.8352309778 -9.9322414371 -9.8424371909 -9.8640034398 -9.9741484198 -9.7782085272 
-9.7701395755 -9.7726625133 -9.9895871843 -9.991276994 -9.9986007334 -9.9930382821 -9.9976232468 -9.9989250899 -9.9977779623 
-9.9982082678 -9.9996025526 -9.9982004555 -9.9998495148 -9.9999749677 -9.9937579583 -9.9976790988 -9.9977963056 -9.9936837157 
-9.9685855801 -9.9960637284 -9.9859318554 -9.9879602754 -9.9990766181 -9.9999992252 -9.9985793978 -9.999902657 -9.9880075672 
-9.9924771508 -9.9970356947 -9.9892024841 -9.9857847984 -9.9974504211 -9.9956983241 -9.9868582395 -9.9999247324 -9.9972759536 
-9.9980204622 -9.9968456167 -9.9927827986 -9.9898285676 -9.9656892871 -9.9686107214 -9.9984234063 -9.9779982645 -9.9732250335 
-9.9795706973 -9.996894161 -9.9986453944 -9.998135531 -9.9968045184 -9.9925053967 -9.9548677285 -9.995007482 -9.9924111454 
-9.9842440495 -9.7643240247 -9.9435570269 -9.9868577852 -9.9985232987 -9.9993423636 -9.9994015512 -9.9992821367 -9.9824298555 
-9.9984970908 -9.9597455905 -9.9888512392 -8.8774224634 -9.9399620391 -9.8112387073 -9.5541407963 -9.8303984444 -9.9376921836 
-9.3197823108 -9.9692685432 -9.9405454024 -9.5581001399 -9.9932666722 -9.9147375596 -9.979444632 -9.9645807738 -9.8049256895 
-9.9722531748 -9.8284153287 -9.5343077118 -9.9946838703 -9.9829737239 -9.9810498183 -9.8191231421 -8.6517179774 -9.6478107833 
-9.99558564 -9.8209733295 -9.8348678732 -9.7939194157 -9.3352706567 -9.7769014973 -9.8058278265 -9.8008613574 -9.9644086655 
-9.9993448203 -9.9822261936 -9.9838012501 -9.7919247462 -9.895128135 -9.8610688843 -9.7840335337 -9.9609253337 -9.9222595258 
-9.9940079983 -9.9240829937 -9.9238981106 -9.9983962817 -9.9245526826 -9.910220835 -9.998387397 -9.9952775024 -9.982727643 
-9.9965975353 -9.9637611758 -9.9798055224 -9.9110432183 -9.9628478989 -9.9897648123 -9.9655332326 -9.9996935653 -9.9922768676 
-9.9212717536 -9.7815827249 -9.9447285351 -9.8455999862 -9.5837088288 -9.6926815969 -7.3463418269 -9.1481710497 -9.1684322519 
-8.9562147952 -9.7584457732 -9.7645781814 -7.254074442 -9.2009772203 -9.9907520117 -9.6993279904 -8.3327391867 -9.9698638798 
-9.8892034066 -9.8462309465 -9.6184761766 -9.2981158594 -8.8325471021 -9.4086666084 -9.1573403617 -9.8814732086 -9.4201087288 
-9.3871482038 -9.9137125075 -9.8665290524 -9.5887435474 -9.6578547073 -9.8165007555 -9.8576537062 -9.9492364189 -9.8227184746 
-9.9805407527 -9.9785970614 -9.9904242968 -9.9906121916 -9.9777333604 -9.8781877499 -9.9041684648 -9.9098859321 -8.6564113553 
-8.1879332555 -9.4936519779 -8.2970257248 -9.803182187 -9.9233206599 -9.9936980293 -9.873306215 -9.7409140482 -9.9795483247 
-9.9858881508 -9.9808658258 -9.9641424178 -9.6309600267 -9.8027650002 -9.8915610929 -9.9865904407 -9.9963790699 -9.9982221581 
-9.9968782165 -9.9974026052 -9.9988834318 -9.9985896501 -9.9994513978 -9.9999660015 -9.9983547722 -9.9999837518 -9.9999701157 
-9.9975194983 -9.9981538168 -9.9960685637 -9.997440447 -9.9979511644 -9.9986105809 -9.9997190156 -9.9988599315 -9.999864058 
-9.9998510043 -9.9984559359 -9.9998797154 -9.9939788431 -9.9956776698 -9.9963284691 -9.9957932856 -9.9917966977 -9.99443946 
-9.998513828 -9.9916434915 -9.9999214777 -9.9999639823 -9.9999705059 -9.9999230844 -9.9997895385 -9.9978894325 -9.9996642536 
-9.9997346648 -9.9999433104 -9.9990340459 -9.9859450398 -9.9985142029 -9.9995425818 -9.9999286434 -9.9998447115 -9.9998433103 
8.1433744926 9.2884370503 9.5770542236 9.6467129838 8.3306823399 8.990833718 9.5710632165 9.301185296 8.3176515811 
8.4179465724 8.1077200315 9.1675144251 9.1377159849 5.7464418029 6.5785995377 9.8362893315 9.4146125104 9.9814618469 
9.9761920515 8.4579096599 9.670180303 8.8630301607 8.0864345786 9.9587200198 6.6126820014 9.9309746818 6.5489281673 
6.4310020225 9.8365805553 9.5234757407 9.9568698307 9.8228019617 9.8665339283 8.1718103029 9.3907779822 9.6224506311 
9.9908883023 9.9783942022 9.9892440311 9.9786903103 9.9856254787 9.970221765 9.9656893536 9.964469075 9.9576507401 
9.9876269164 9.9987265453 9.9765440251 9.9784246799 9.9579061891 9.9974556584 9.9710313251 9.7245806198 9.5082722536 
9.9666169365 9.625001344 9.4375189467 9.5555829559 9.4409049375 9.9812195949 9.7458946989 9.804223993 9.9169365171 
8.7736689468 8.5978791825 8.5295224111 9.0629829487 9.2135775514 9.7430613844 9.7216596068 9.1563661963 9.9943020478 
9.989281908 9.9686303535 9.7003743488 9.9753618586 9.7252166856 9.7915177017 9.9910676383 9.7130726628 9.8506176594 
9.9881883429 9.9691737268 9.9745578188 9.9170681906 9.9810343563 9.9723248416 9.4647669567 9.989681152 9.3140026713 
9.5253127103 9.462005099 9.9593398178 9.8359001814 9.9431377385 8.3754182305 9.9755553531 9.8308809284 9.9602371983 
9.9948817574 9.9763277227 9.9886388622 9.9859822573 9.7862967342 9.790874604 9.7774355422 9.9924507958 9.9531394994 
9.9771477669 9.9916080259 9.9579568822 9.9924988971 9.9973149909 9.9998772073 9.9964123737 9.9965681387 9.9701723495 
9.9940836647 9.9916644825 9.986008472 9.9996719963 9.9691218431 9.9932412199 9.9965897254 9.9747522561 9.784165908 
9.8632539164 9.9669227965 9.9971973116 9.3291170452 9.2315777921 9.7810364675 8.8520632005 8.4448162214 9.9954502266 
8.8036183479 9.8968131454 8.7534362044 8.148781285 9.5526832981 9.6553694401 9.8673702557 9.8649742055 9.9746733782 
9.9946775901 9.9539365081 9.9389840462 9.9913726346 9.9972335832 9.991388081 9.9984586258 9.8333981599 9.8648566488 
9.9827017709 9.8984794831 9.8835564474 9.0614996041 9.9490096344 9.9569622899 9.9897884596 9.9743605663 9.9852416028 