# vtk DataFile Version 5.1
vtk output
ASCII
DATASET POLYDATA
POINTS 1244 float
0.119832 0.104239 0.136459 0.117848 0.0156955 9.80049 -0.0360496 9.74555 -0.00222156 
0.0308573 9.77909 9.78067 9.83094 0.0693423 0.0650316 9.83804 -0.0698389 9.87838 
10.0498 9.91965 -0.163384 9.87709 9.79343 9.95394 -0.0925419 -0.0977143 0.891329 
-0.145891 -0.138637 1.89321 -0.0667234 -0.148542 2.89592 -0.186985 -0.288733 3.93786 
-0.157264 -0.137513 4.95579 -0.24637 -0.214464 5.99813 -0.159702 -0.17098 7.02184 
-0.124678 -0.143699 8.00973 -0.211805 -0.31072 9.04818 -0.175468 0.822141 -0.23978 
-0.0428265 1.95871 -0.0674076 -0.0153172 2.95647 -0.05487 0.0928493 3.94385 0.091975 
0.00337047 4.97227 -0.035141 0.0701305 6.04705 0.0941249 -0.0369379 7.07477 -0.0508457 
-0.142669 7.97741 -0.147083 -0.25907 9.03944 -0.16682 -0.372303 10.0212 0.858094 
-0.121537 9.88984 1.90234 -0.229493 9.8854 2.95229 -0.107885 9.8043 3.94144 
-0.137967 9.67222 4.98284 -0.106803 9.77051 5.99654 0.0228468 9.66841 7.02902 
-0.121821 9.8848 7.9768 -0.117921 9.94917 8.9887 -0.159037 0.921597 9.90068 
-0.0604289 1.96263 9.90563 0.0880302 2.99472 9.75408 -0.0406906 3.97684 9.83003 
-0.0163886 4.95987 9.69528 -0.0796132 5.9583 9.90173 0.163826 6.98175 9.65704 
-0.113086 8.03745 9.97669 0.00609703 9.03474 9.81924 10.0086 -0.159982 0.852026 
9.87023 -0.0473417 1.88775 9.86809 -0.186666 2.98539 9.93078 -0.265644 4.04276 
9.98182 -0.27908 5.00464 9.94824 -0.280325 5.99284 9.7761 -0.191735 7.02081 
10.0523 -0.371064 8.01644 9.88235 -0.192477 8.95737 9.81772 0.951444 -0.0657228 
9.86781 2.03631 -0.3092 9.75278 3.01108 0.0507721 9.84399 3.91658 -0.101902 
9.71848 4.94808 -0.0162366 9.90703 6.04662 -0.123267 9.73114 6.89891 0.0373062 
10.0326 7.90014 -0.18077 9.73597 8.9558 0.0461491 9.96022 9.92523 0.930973 
9.92949 9.85935 1.96041 9.79229 9.70837 2.89628 9.62198 9.64478 3.92353 
9.904 9.74399 4.94691 9.79743 9.73988 5.99358 9.9465 9.85472 7.02199 
9.92146 9.83264 8.05409 10.0924 10.0797 9.12339 9.93012 0.899047 9.88966 
10.0471 1.98214 10.1375 9.73599 3.0206 9.72356 9.79059 4.00102 9.76532 
9.74278 5.06 9.76941 9.78158 6.0217 9.651 9.91266 7.01446 9.8243 
9.99656 7.9093 9.99731 9.78688 8.98596 9.90297 0.920023 -0.0413204 -0.0823006 
2.04461 -0.145652 -0.0864315 2.93235 -0.0742465 0.00889216 3.93857 -0.0857361 -0.0593133 
5.00958 0.0690168 0.00622593 6.01968 -0.0617241 0.057265 6.96393 0.0364508 0.0441427 
7.98153 -0.258013 -0.157889 9.06014 -0.0952342 -0.101399 0.940431 -0.210354 9.89006 
2.02827 -0.27512 9.9495 3.0552 0.0668499 9.85836 4.02329 -0.204065 9.88264 
4.93758 0.0777626 9.73783 6.04772 -0.242506 9.88529 6.92867 -0.0451744 9.8343 
7.958 -0.256197 9.85888 8.93677 -0.130315 9.76219 0.887199 10.0722 -0.273106 
1.94714 9.87673 -0.0385788 2.92702 9.89943 -0.11581 3.94094 10.0105 -0.232545 
4.95222 9.69487 0.00930168 5.99633 9.8574 0.020008 7.00494 9.7672 -0.0748493 
7.92254 10.0091 -0.16336 8.96472 10.016 -0.107293 0.925642 9.87681 9.80688 
1.9616 9.94883 9.71419 2.91182 9.8499 9.73903 3.93361 9.83242 9.69989 
4.98611 9.97095 9.77457 6.02193 9.7867 9.56206 6.95233 9.87517 9.82022 
8.03127 9.8218 9.72962 9.01749 10.1532 10.2503 -0.240188 0.372037 5.01445 
-0.311594 0.302942 1.87112 -0.151784 5.65182 1.92241 -0.259493 8.25418 3.45663 
-0.280194 8.34833 0.389638 -0.234802 5.64464 8.06271 -0.250233 8.38601 9.6031 
-0.285601 8.25935 6.55831 -0.503639 0.217893 8.13247 -0.290668 2.90719 9.35254 
-0.156228 2.97644 0.438459 -0.0962718 5.65127 4.99994 -0.0978064 2.98208 3.46191 
-0.135367 2.9816 6.54342 -0.260581 0.37519 9.47407 -0.386653 0.296632 6.48545 
-0.376795 0.272835 3.47846 -0.106268 0.321763 0.393426 -0.162297 4.29407 8.803 
-0.152807 5.60188 9.36067 -0.22926 6.97507 8.78736 -0.142071 6.98672 7.30962 
-0.345342 8.28792 8.08193 -0.241313 9.43861 8.80282 -0.256328 9.40558 7.38088 
-0.249727 9.39009 5.73287 -0.272214 4.31488 1.14712 -0.258139 5.62937 0.372663 
-0.094815 6.98877 2.68612 -0.203805 6.99684 1.1605 -0.27037 8.24307 1.91109 
-0.709774 9.50435 4.22248 -0.398487 9.43498 2.64042 -0.421054 9.50467 1.11537 
-0.235384 8.27865 4.99636 -0.0967028 6.9863 4.22643 -0.114051 5.65169 3.45692 
-0.107844 6.98249 5.77384 -0.0917706 5.65104 6.53904 -0.110851 4.31662 2.68788 
-0.165621 2.97739 1.91842 -0.291531 1.62657 1.13534 -0.165241 1.65172 2.68113 
-0.132519 1.64472 4.22358 -0.116274 4.30928 7.31343 -0.178098 2.98418 8.07206 
-0.203495 1.64761 5.76999 -0.23775 1.65916 7.31736 -0.217651 1.62707 8.84946 
-0.0984436 2.97765 4.99999 -0.0982456 4.31509 5.77164 -0.0943941 4.31505 4.22863 
-0.387655 0.393601 8.81428 -0.318603 0.265324 7.31634 -0.384213 0.293293 5.83479 
-0.260719 0.283431 4.21094 -0.2622 0.283435 2.66511 -0.224479 0.411627 1.11605 
-0.19184 3.61684 9.23009 -0.15109 4.37137 9.38831 -0.131843 4.94061 9.21366 
-0.124819 4.97426 8.42491 -0.273219 5.67066 8.71591 -0.174307 6.32248 8.44606 
-0.150493 6.31726 7.6959 -0.268986 6.98013 8.06939 -0.156845 7.7205 9.17844 
-0.274741 7.66236 8.45414 -0.351792 8.30234 8.84275 -0.196139 7.64897 7.69189 
-0.208374 7.65291 6.92652 -0.313519 8.26683 7.32091 -0.19242 8.87474 9.29289 
-0.163821 9.4197 9.4662 -0.353787 8.88266 6.96271 -0.419808 8.85198 6.18918 
-0.387416 9.4508 6.50001 -0.484227 9.64931 8.17824 -0.370079 8.95442 7.72069 
-0.27862 8.93283 8.45674 -0.193871 7.01999 9.44416 -0.339582 6.38943 9.25164 
-0.160102 3.65054 0.726829 -0.134768 4.31968 0.392211 -0.177676 4.98285 1.5324 
-0.156695 4.98522 0.756114 -0.171135 5.64595 1.16135 -0.155689 6.31988 2.30053 
-0.181742 6.31839 1.5473 -0.178624 6.98548 1.92588 -0.165159 7.65128 3.08242 
-0.171027 7.64156 2.29941 -0.263 8.26269 2.69012 -0.141399 7.64043 1.54202 
-0.270098 7.66467 0.751158 -0.186035 8.2907 1.13095 -0.353813 8.8379 3.80264 
-0.288877 8.88604 3.06426 -0.167276 9.4127 3.50438 -0.277106 8.87171 0.768591 
-0.228384 9.50866 0.357017 -0.30376 9.54252 1.82295 -0.33237 8.89546 1.52119 
-0.304984 8.85157 2.29283 -0.170602 6.96431 0.406227 -0.215442 6.29665 0.730929 
-0.285259 9.31668 5.03861 -0.113257 8.77679 4.62982 -0.216523 8.28802 4.22599 
-0.359521 8.77748 5.3546 -0.238362 8.29236 5.76049 -0.158523 7.65847 3.83542 
-0.152501 6.98664 3.45828 -0.109755 6.31783 3.07047 -0.105856 5.65294 2.68876 
-0.0669984 6.3202 3.8422 -0.108249 6.31918 4.61344 -0.0937704 5.65169 4.22852 
-0.183505 7.64604 6.15958 -0.144897 6.98431 6.53617 -0.0970066 6.31982 5.38571 
-0.106564 6.31811 6.15357 -0.100417 5.65094 5.77105 -0.0994493 6.3189 6.92687 
-0.142189 5.65272 7.30879 -0.114359 6.986 4.99846 -0.192894 7.6489 5.38386 
-0.163521 7.64408 4.61131 -0.135297 4.98326 2.29997 -0.154575 4.31483 1.91839 
-0.186829 3.65118 1.53381 -0.287114 2.97322 1.15446 -0.145616 3.647 2.30252 
-0.10276 3.6495 3.07125 -0.0904286 2.97527 2.68255 -0.19703 2.30146 0.72357 
-0.164106 1.58109 0.417218 -0.208392 0.977709 0.775135 -0.281046 1.00347 1.51455 
-0.114383 2.30895 3.06896 -0.0982075 2.31065 3.84619 -0.195622 1.65437 3.464 
-0.325023 1.00816 2.29786 -0.256479 0.998433 3.07705 -0.309994 1.02296 3.83185 
-0.267078 0.998266 4.61791 -0.242121 1.65111 1.91559 -0.181294 2.31702 2.3083 
-0.185246 2.30028 1.53822 -0.0761767 4.97958 7.69587 -0.145844 4.31042 8.08284 
-0.104365 3.64561 6.9286 -0.140659 3.64267 7.69798 -0.0861632 2.98109 7.32008 
-0.205451 3.6582 8.43191 -0.176212 2.96614 8.77641 -0.119182 2.30948 6.15446 
-0.122508 2.31521 6.9221 -0.185252 1.6595 6.541 -0.231033 0.996829 5.36922 
-0.297531 1.00599 6.153 -0.282735 1.00841 6.92675 -0.301964 1.00789 7.70626 
-0.250069 2.30857 9.23453 -0.115011 1.60307 9.53931 -0.173134 1.03116 8.42105 
-0.184884 1.04774 9.24012 -0.241581 1.64658 8.08068 -0.219008 2.2984 8.44563 
-0.156824 2.31221 7.69723 -0.177931 1.64369 5.00316 -0.132077 2.3135 5.38668 
-0.100179 2.97985 5.7688 -0.108634 2.31201 4.6122 -0.0705091 2.97826 4.22998 
-0.0669595 3.64777 6.15591 -0.107373 4.31274 6.54156 -0.0973399 4.98123 6.92382 
-0.0904647 4.98283 6.1548 -0.102375 4.98323 5.38563 -0.0792462 3.64749 3.84372 
-0.111764 4.31599 3.4572 -0.103385 4.98338 4.61419 -0.0811099 4.98337 3.84244 
-0.0994397 4.98337 3.07078 -0.0997316 4.31495 5.00008 -0.0800023 3.64698 4.61437 
-0.0749101 3.64707 5.38617 10.0343 0.286471 5.0037 10.0348 0.294635 1.86862 
9.94125 5.6525 1.91808 9.92305 8.27913 3.44013 9.99893 8.32499 0.365562 
9.95363 5.63919 8.06785 9.8718 8.31234 9.55701 9.93053 8.28768 6.53718 
10.0885 0.235636 8.02972 9.98561 2.94417 9.35516 9.88318 2.94382 0.378226 
9.86756 5.65185 5.00005 9.89358 2.97792 3.45596 9.87874 2.97778 6.54372 
9.86586 0.361089 9.42205 10.128 0.317711 6.58237 10.1079 0.313035 3.45845 
9.93622 0.440956 0.484388 9.93691 4.3544 8.69806 9.85283 5.57873 9.39231 
10.0265 6.98243 8.76421 9.91763 6.98305 7.31179 9.99288 8.20813 8.04663 
9.97994 9.37534 8.58136 9.9024 9.44358 7.3214 9.89084 9.35571 5.82784 
9.94686 4.31539 1.16774 9.86492 5.65891 0.396629 9.88977 6.9873 2.68523 
9.97483 6.98937 1.16053 9.99176 8.26697 1.91988 10.0106 9.37522 4.25415 
9.96838 9.36813 2.61113 10.0581 9.38473 1.14461 9.89917 8.26056 5.00576 
9.87408 6.98612 4.22727 9.8843 5.65193 3.45635 9.88391 6.98801 5.77192 
9.88198 5.65207 6.54413 9.90049 4.3153 2.68688 9.93637 2.97341 1.92123 
9.97308 1.64907 1.14494 9.94444 1.64841 2.69116 9.91669 1.64571 4.22811 
9.88885 4.31526 7.31403 9.95641 2.96872 8.03625 9.91539 1.6466 5.77486 
9.93001 1.64311 7.31519 10.0476 1.63885 8.78819 9.87907 2.97798 5.00003 
9.87094 4.3149 5.77191 9.87441 4.31493 4.22814 10.0551 0.353325 8.85336 
9.94667 0.290067 7.28182 9.90607 0.354356 5.7549 9.88443 0.335624 4.24221 
9.98119 0.272747 2.75561 10.0567 0.355617 1.11186 10.0095 3.64808 9.21606 
9.94811 4.31369 9.38658 9.88431 5.00821 9.22858 9.9416 4.98516 8.44644 
9.9973 5.61102 8.74993 9.97184 6.3033 8.44596 9.93342 6.32034 7.69147 
9.95999 6.99525 8.05654 9.84452 7.62765 9.21683 9.96006 7.63937 8.42581 
9.82211 8.20022 8.82289 9.90506 7.63838 7.70057 9.90753 7.63373 6.92033 
9.98464 8.27574 7.30625 10.0043 8.82259 9.19259 9.99527 9.44785 9.43727 
9.95386 8.87915 6.88422 9.95897 8.85062 6.17788 9.75761 9.38988 6.52682 
[...]
CELL_DATA 2484
SCALARS scalars double
LOOKUP_TABLE default
-6.8498878677 -3.6760824908 -1.7136335919 -1.8119197814 -6.75666259 -3.7790529559 -3.4563632351 -2.6267149809 -2.9127351307 
-3.6744004648 -1.6534261367 -1.9921754366 -4.3137722044 -4.6537944211 -3.8042706976 -3.5341685388 -1.9217531608 -4.4323365051 
-4.9330829294 -1.9018154271 -3.48718108 -1.5171745808 -1.3720798157 -1.087547538 -1.4599665595 0.5134429076 1.6154634376 
0.013049143235 0.51298742713 -0.70230117744 -1.8804631246 -2.0146015533 0.3810961959 0.64064940051 -0.83042312043 1.0269027807 
1.069490516 -1.118557051 -0.8277947862 -1.5936544912 0.12107477194 -2.3294483057 -1.1580386823 -2.2115984159 -0.90221195727 
-2.0685559901 -1.4698137293 -1.7802869574 -1.6908602011 0.14503662781 -0.39392176829 0.49884466386 2.7699598926 0.15086903451 
1.7857181741 -0.69182783915 2.9409038477 1.920027188 0.54001760181 -1.6606859834 0.63845499533 1.4913218369 0.099606560455 
5.3233867735 4.5899055711 7.7725960319 7.978193398 8.2446406479 2.1490034569 0.81928418448 6.6066938458 -0.85816350884 
-0.58744678011 -0.73615664499 0.030601172338 1.0893409332 1.8535249 1.8275172101 0.30468577255 -1.465370827 0.28724438627 
-2.331728918 -2.2623768238 0.71174736673 -3.6870112414 0.23630093965 1.2410913022 -2.0706181099 0.63077448328 -1.0299078953 
-1.8987582388 0.82062474335 2.1397126552 3.0865883409 0.63851688281 1.4526750593 -0.52418010378 -1.3516496677 -1.8482503373 
1.5489520088 0.23974091292 -0.89752472689 -0.052664778079 1.2611798712 0.76564024698 -2.6066000635 0.65167322301 1.2930618493 
-0.25427501752 0.27349644865 -0.13871169897 -0.14961778943 -1.1079805188 -1.5627213961 -1.546081721 -1.5218950659 0.004833551587 
-1.4012022804 0.54100999975 0.34427286132 -1.867393265 0.76517287387 -0.50934073499 0.33835054641 -1.0433817008 -0.5062596692 
0.068546460743 2.7672560022 9.0866378711 1.7715507611 0.13134367258 6.5236897312 -0.84947463547 0.17573367665 3.449054907 
0.72233879135 1.6786176235 -0.31236276431 1.3390379116 4.0094698284 4.7138756818 -1.8670883641 4.0490711782 -0.80630404075 
-1.6236126679 -1.9440733754 -1.7463343894 -0.6369477617 -0.43923375583 -0.55434083547 -0.76164023808 -0.83630691659 -0.33453541981 
0.26920729335 -1.2198746733 -0.6070981535 -1.431136024 -1.1694198199 -0.08842445206 0.04783294412 -0.30478991629 -0.40011951505 
3.1425600518 0.44720363327 -1.4158799373 -1.1048242297 -1.0767197851 3.836249625 -5.5458681515 3.5515262638 3.9780861605 
-1.9563294902 2.233581942 -0.26247319996 2.2955857384 -2.4187010138 -2.6034013401 -2.770391219 -0.045881094576 1.5590847176 
-4.9329718065 -0.5800308031 -1.607752761 -0.61102750489 -0.49537875344 -0.13984204805 0.56337673507 -0.39695551352 0.0026058045459 
-0.39949511669 -0.13710669636 0.5513254785 -0.19810566269 0.091321443216 0.38434324681 -0.85927509607 -0.2049990837 -0.9562160519 
-1.4463090262 -0.85474533754 -0.96794050368 -0.76149380914 -0.090509840259 0.020024788153 -0.15666215572 -0.020735865009 -0.2568391118 
0.2650523205 0.58163150653 0.2606892178 -0.16846929984 -0.65889971198 -0.29618690404 -0.62733524337 -0.095021751625 -0.21213597403 
0.040398270282 -0.1757227506 -1.199207294 -1.2341307866 -0.68942319081 -0.77340203278 -0.96309100502 -0.97175711096 -1.2900182713 
-0.86797687321 -0.9008908945 -0.87815927814 -1.2210725122 -0.9620176822 0.065080285324 0.52866375586 -0.035953554844 -0.026738078212 
-1.4620848997 0.70960249718 0.58287381431 1.6417977681 0.198371716 -0.26392445366 -0.128959565 -0.50382156479 -0.0087472282198 
0.19208126625 -0.39300846844 0.17448943453 0.29953648473 0.30086631779 -0.18192488096 0.44547992787 -0.74486302089 -0.64307146801 
-0.16200411899 -0.29970804156 -0.30229969441 1.3566390142 0.12488923782 -1.4853697482 0.49539178819 0.99904030896 0.98486755624 
1.3520596933 1.9012122905 -0.55666064249 0.87325725535 -0.42177069198 2.3859574824 0.14316304494 -0.24994914416 -0.39190238562 
1.2306810582 2.2451597346 1.1504538816 1.3558336412 0.14959506979 1.8440011666 0.21257399223 0.94642314803 0.25210171923 
0.30290946558 0.81300083226 0.86827248947 1.473410859 -0.59636121887 -0.16522383851 -1.4178473182 0.26415966373 1.2107711834 
0.31956809498 0.89107472581 -1.9652869663 0.81484409248 0.42892980017 0.6552112301 0.093777953101 0.099148040356 -0.12473438587 
-0.55159969941 0.56114612677 -0.41409357457 1.0446045673 -0.34629193481 0.065993231012 0.79862548322 0.14385038592 0.4343367448 
-0.21662372947 1.1389568304 1.3344293248 0.98156556789 0.94473905395 1.0637896545 1.2264994952 1.5774532615 0.83583504554 
0.92311981013 1.329086653 0.35315540616 1.3318199784 1.0879070071 1.572018683 1.5869013053 2.0084259331 -1.2674538442 
0.93887430643 -0.86505223743 -0.65197861447 3.5511665008 1.7511640749 3.0780643961 1.3364606436 0.44280618845 3.2325975982 
-2.9772675824 0.9439139526 -0.94872858416 0.96104644418 -0.1115161231 -0.2547959841 -0.2752324223 0.61858835747 0.83767389033 
1.4755894192 0.36325956131 0.16673852934 0.80514737013 0.14488319267 1.246534315 0.16950547362 0.79800192718 -0.12559808979 
0.62882952656 1.6995498601 1.0858671096 1.1645854724 0.022076819722 0.4918526666 0.38090574392 0.43721219731 0.36378786235 
0.20980081089 0.49299566988 0.32947166248 0.69381852713 0.87418090922 0.8553128489 0.74357265724 -0.11226110644 -0.53722991766 
-0.32590886902 0.44067067486 -1.6610813175 -0.29199858377 -0.82096595898 0.027664162059 -0.084283875468 0.060328876009 -0.06003895328 
0.031826555333 0.18418310818 0.21540823544 0.20091647201 0.1040542863 -0.35617609086 -0.1281489109 -0.31059730729 0.031971847191 
0.12517754754 -0.34096076726 -0.022690570056 -0.095895816508 -0.15680875587 0.091606805932 0.16936622137 -0.35554142605 0.17785212376 
0.32884881949 0.32194000222 0.098920918932 -0.094594306375 -0.050666829695 -0.04709806799 -0.22112103005 0.074739430198 0.066495044972 
-0.13625500054 -0.40877527409 0.36493323926 0.75865828362 0.43728534378 0.3133462419 -0.36023792428 -0.25530443849 -0.33329057616 
-0.62581678394 -0.11909699368 -2.8692433545 -2.3269155336 -0.54313010437 -4.2589253355 -4.4567210999 -0.33457814286 0.78917808191 
-1.7453593651 -0.90822231648 -0.16993643139 -3.6679410353 -3.071997665 -2.5317909175 -4.2028018811 0.031145635145 -0.20953196229 
-0.19125451489 -1.0319432812 -4.3131205341 0.93705983463 -0.90598587269 -0.55276690683 -0.6986906412 0.94568297505 0.3721243103 
-0.10916787966 0.21468635731 -0.090101005286 -0.56604855102 -1.2497319257 0.89004059743 0.39522713479 -0.1980537391 1.4236005605 
0.015520619411 -0.35939060372 -0.086561064599 -0.1166313706 1.7311360868 -0.067024469873 0.87117610467 1.3820502348 0.17351341157 
-1.3824178464 -0.76665509566 -1.2152915289 -1.0723294873 0.53267348486 0.52903720505 0.43233889196 -0.33629597599 0.22122965917 
1.8052540746 -1.0919889261 -0.29167951229 -1.5413675867 -1.2458722885 -0.447015511 2.3376764899 2.4638987905 3.5406904543 
-0.90611452717 1.596373026 -2.7332653735 -2.2005966423 2.5376424028 2.4704224943 -1.8473927106 2.4984800393 0.018163426817 
-2.0907757253 -1.0518872425 1.0656831786 -2.3132205269 -2.6746402773 -3.2957240514 -1.552284317 1.005865716 2.7403796225 
1.1276439845 0.67616745583 2.7734156441 -1.3869005662 -1.2329437606 0.088162365175 -0.17886256947 0.69127509257 -0.051102751963 
-0.042362828441 -2.2670575303 -2.0259112701 -1.7010960599 2.2327440242 -1.5753228506 1.5115829621 1.2801208597 1.5874272646 
-0.27989002065 -0.016948404598 1.1727596409 0.14497347202 -1.7366635082 -0.48026732846 -0.018726718342 -1.4575025666 -0.5628700332 
-0.65491072932 0.38242795941 1.2674678801 0.88473370591 -0.67971363378 -0.33085578134 0.029052944855 0.038081609618 -0.90569598656 
0.073338941533 0.80697399705 0.21022351793 -0.063749354986 -0.92716239086 -0.84765955741 -0.94400131517 -0.26263750217 -3.0224781325 
-1.8475013744 -3.2854624353 6.7889496384 5.7453150964 8.7940644416 8.6812666236 0.4477817056 1.4006650715 -3.5715235561 
-2.6669505263 1.7786908136 2.0097988886 1.7609249602 3.001852378 2.8034013363 1.2453892241 3.2252452428 -1.4569579147 
-2.2611559157 -1.5999597295 0.48255558057 -0.83915049281 -0.57658835216 -0.95218246128 -1.460107113 0.29735058252 1.7371739004 
0.8206633485 -1.5927213747 -1.4777599265 -3.421764184 0.71563426385 1.0196396468 -2.1768132894 -1.3186729772 -1.3167818113 
-2.296009544 1.4186521206 2.6603535213 3.0126664644 0.90718159058 -2.7017028327 -0.53697677684 1.940866134 -2.5386051782 
0.23558338636 -1.8412700075 -0.58020382119 0.9177530085 0.35006015142 -0.20881430041 0.54227838368 -1.2159699144 1.8666487629 
2.229903662 4.8023595619 -0.45508264301 -0.32584415452 -0.07773826316 -0.22204801556 0.30097974348 -0.14617706411 0.12313783644 
-0.068771961351 -0.046212139797 0.076900706962 -0.020445767908 -0.017245769266 0.0755214779 -0.069830108755 0.031860138263 0.0021259362536 
-0.4470606783 -0.10221914754 -0.036340514138 -0.12721902817 -0.083781084616 -0.043014937752 -0.10259245774 -0.092484623748 0.023707715412 
-0.18794137618 -0.077556199864 -0.24931794877 -0.18580026129 -0.0089246357957 -0.069553649134 0.018040158567 -0.057439275885 -0.14222917588 
-0.10846226441 -0.13672671623 -0.2673781916 -0.82036622171 -0.39755948472 -1.0050859675 -0.32542293154 -0.17284124774 -0.81377956525 
-0.74763368047 0.15221538737 -0.49020111817 -0.38660282845 -0.42667533639 -0.032528687195 -0.095173395324 -0.18260962266 -0.051801822505 
0.14892704771 -1.081904696 0.2832426056 -0.00034844422957 0.01787461208 0.21540985486 0.064739406565 0.080890650914 0.27700046181 
-0.16016646336 -0.19606559888 -0.26506803324 2.2665728692 0.20845201192 0.44093248621 0.42777722082 0.96585010601 -0.56957915154 
0.018844974992 0.34802883274 1.1155162522 -0.79283139208 0.1299111045 -0.34198237615 -0.24405785405 0.68158541725 0.61063978805 
0.86723218406 0.80279614395 -0.937278754 1.6960707563 -0.041501008906 0.95388980883 0.45891030835 -0.43672181546 -1.4241449129 
2.3353963894 0.46727979087 -0.54440983787 -0.25912623352 -0.31030614673 1.8674263388 1.1513951657 1.453876544 0.39740705894 
0.09705072699 0.11656104842 0.16662660023 0.16021741264 0.53609500053 0.3345750203 0.059248539753 0.29530664582 -0.21880946657 
0.37697443062 0.12356635267 -0.45334293441 -0.13684650242 -0.26619439781 -0.27414748319 0.04549626136 0.036451485705 0.24043625999 
-0.13273490796 0.69213983392 0.24863642318 -0.21633768881 0.45831135699 0.28315234379 0.72525691339 0.11826378554 0.51480833967 
0.28031362345 0.26465790839 0.39391626418 0.2799641441 1.2093169774 -0.424290745 0.3574637105 -1.387657614 0.66445382242 
0.9393588133 0.64915524896 -0.38594548324 2.1424470098 0.76579593154 1.1479704519 1.0037452452 4.1599269187 1.2211856514 
-1.145588007 0.72977542979 0.25520706648 0.26931418485 -1.9470979922 -0.16491535087 -2.5583614708 0.74474456756 1.0010493192 
-0.94245555589 -0.14532489494 0.54168959921 0.21533075568 0.37905588626 0.38174870475 -0.86599741552 1.45321232 0.017167018893 
0.72775058776 -0.84520380889 0.23801027528 -0.026036705062 0.19314833952 1.4177105896 -1.0687293891 0.15984194857 0.57173014553 
1.2204429654 1.0528289772 1.0952135988 0.4162380832 0.32052515183 0.0038599279748 0.19345545551 0.30270285762 0.20671926143 
0.13147889271 0.18496776986 0.10815358452 0.35741337603 0.6227463883 0.5324297666 0.037826136221 -0.059451885765 0.0079534695925 
0.0038417103182 -0.10754278169 -0.33221452191 -0.10071188745 -0.098124110977 -0.003882857908 -0.049621423341 -0.017718388872 -0.013990097764 
-0.034763230046 -0.0043665287836 -0.047130078819 -0.055303452244 0.064700830328 0.01651553911 0.023788621791 0.013695360584 0.035568977343 
-0.0022719252236 -0.023486098728 0.032606013278 -0.16006135208 -0.040562467333 0.10660354726 0.089741084576 -0.0074909559393 0.03489256034 
0.087703145623 0.067745521264 0.015711849008 0.05434467149 0.026771940321 0.020270364464 0.067297059437 0.095958455751 0.094197737883 
0.079245967491 0.034965732676 0.064591214764 0.041187939901 0.021638497454 0.076417053906 0.031808293469 0.047168591484 0.059776289021 
-9.7466344678 -9.6301156707 -9.0364843325 -9.0297570554 -9.9315742848 -8.5516712104 -8.6385242713 -9.7273513766 -9.8890101224 
-9.6545043135 -9.7920223331 -9.3300814185 -9.6147539158 -9.1320072426 -8.5785866634 -8.7142893643 -9.7131422881 -8.9683740287 
-8.948857661 -9.3953948205 -8.4076632264 -9.2565400411 -9.8737098367 -9.9614252 -8.8535896979 -9.9430085556 -9.9743631445 
-9.903331073 -9.9675908811 -9.9328763255 -9.9767546094 -9.9826379705 -9.9746510111 -9.5485502567 -8.6540004555 -8.9952872265 
-9.9310989754 -9.9108765446 -9.9727891784 -9.9494540856 -9.8982228154 -9.9838527673 -9.9677855551 -9.9002539506 -9.9835092402 
-9.9709563989 -9.9313102168 -9.9316297837 -9.975045924 -9.9904009443 -9.9150795935 -9.9907484589 -9.9127013942 -9.9257081813 
-9.9732872275 -9.8934665852 -7.9696492964 -9.8917638829 -7.9121602943 -9.8554202234 -9.9245428808 -9.8026771378 -9.8404730877 
-9.5729084457 -9.773231811 -9.3790531874 -9.4293846176 -7.5233212082 -9.9998290455 -9.3269351254 -7.4952960526 -9.8477289759 
-9.9142040504 -9.9066339403 -9.9728228392 -9.9846873741 -9.9817131116 -9.9762192595 -9.9410731405 -9.3712572554 -9.5710849405 
-9.545657543 -9.9931261123 -9.6126691052 -8.9211310251 -9.8936395066 -9.9842324046 -9.8465741092 -9.8361528577 -8.9202631547 
-9.9434253668 -9.6476583002 -9.6736965507 -8.8236689852 -9.7034557524 -7.3520901042 -9.9785136458 -9.0493767579 -9.5778102268 
-9.9779852492 -9.9675045761 -9.9631028948 -9.9849398852 -9.4323380099 -9.319492693 -9.3711750424 -9.9814143581 -9.7272631703 
-9.961300406 -9.9717100676 -9.9923704064 -9.9578877198 -9.9704329486 -9.9677112624 -9.9205852323 -9.949564528 -9.9933697954 
-9.9738134141 -9.9890108975 -9.9795118293 -9.9107279396 -9.972310538 -9.9802001288 -9.9309143255 -9.7711279341 -9.8143553018 
-9.5868423842 -9.8454846492 -9.8368936732 -8.5504640193 -9.8693617867 -9.8461091443 -9.6847850576 -7.800818858 -9.4928558267 
-9.4729815831 -9.711680628 -9.7112977532 -7.6714582134 -9.5719148358 -9.4699794287 -9.9336999334 -8.2985423333 -9.8254553617 
-9.9682188875 -9.8580682825 -9.8574056901 -9.9838952826 -9.8692234628 -9.9658839946 -9.99133546 -9.8480699859 -9.9766155706 
-9.9840719187 -9.9962507085 -9.9664532338 -9.3225823061 -9.9008453413 -9.9977093957 -9.9615090131 -9.9677815917 -9.990834866 
-9.8887979926 -9.9996267647 -9.4818915066 -9.7924712972 -9.9545038538 -9.7647984538 -9.8867065411 -9.900228754 -9.7302241658 
-9.7947778355 -9.995149418 -9.8878181491 -9.9935818553 -9.9381938843 -9.927967587 -9.9172597597 -9.9857186967 -9.9951023825 
-9.9270285158 -9.9724836989 -9.9611575804 -9.8614666355 -9.9536204446 -9.8617688508 -9.9990191261 -9.9825631849 -9.9878907408 
-9.9984361201 -9.9811369291 -9.997409523 -9.9923989453 -9.9929644329 -9.9803692587 -9.9623544071 -9.937815559 -9.948887515 
-9.9520719815 -9.9930842659 -9.9850553299 -9.9931493531 -9.9866976735 -9.9983426827 -9.9981018752 -9.9977643187 -9.9859764647 
-9.9961441421 -9.9302624992 -9.9960405697 -9.9981098676 -9.9811392995 -9.9933422863 -9.9999662363 -9.9918934803 -9.9867674756 
-9.9819498396 -9.9924614813 -9.9513768816 -9.94764198 -9.9460951187 -9.9643954691 -9.9777094722 -9.7738273629 -9.9146517583 
-9.8207210966 -9.830672736 -9.9809554435 -9.9510385532 -9.958566908 -9.9686679285 -9.9355570998 -9.9970425083 -9.9673960963 
-9.9892358012 -9.9677139308 -9.9856909398 -9.9873362644 -9.9413862286 -9.991740625 -9.9236328245 -9.9210589401 -9.9616995231 
-9.9991196172 -9.9332748526 -9.9556381464 -7.2223931205 -9.9198676839 -9.8751060172 -9.9175409038 -9.9532982101 -9.8234592901 
-9.8796329598 -9.9540418128 -9.9180185824 -9.8806646951 -9.9792260503 -9.755756153 -9.7589906537 -9.7588577155 -9.9366027521 
-9.9220775811 -9.8801816195 -9.8291945357 -9.962253612 -9.9311054665 -9.7416545548 -9.8267689173 -9.8748242021 -9.8134180577 
-9.993470187 -9.7928878858 -9.8954767072 -9.8101787517 -9.802170596 -9.8287323623 -9.9499617491 -9.8790050503 -9.7603825987 
-9.9634113777 -9.9801467921 -9.9392274019 -9.9331374705 -9.9735573276 -9.8396051613 -9.8873361799 -9.9731720671 -9.9468687288 
-9.9101823475 -9.9195230035 -9.9550743573 -9.9982410525 -9.9139237109 -9.9897625661 -9.9876590364 -9.9783733073 -9.9954868359 
-9.984642788 -9.9745308508 -9.9016782279 -9.9463869234 -9.9616160522 -9.9660862752 -9.907144189 -9.994135986 -9.9419880576 
-9.8860937238 -9.9677551399 -9.6531221461 -9.7481092931 -9.2025954012 -9.9960600885 -9.9099190759 -9.8957415216 -9.8048366818 
-9.8908235909 -9.9075443649 -9.9239264323 -9.8900453319 -9.8413393526 -9.0704601078 -9.4089620701 -9.4057280449 -9.6560321749 
-9.8906162138 -9.8880187755 -9.9785244313 -9.9768504766 -9.6396458386 -9.9253562171 -9.4630859165 -9.4765513768 -9.9689317634 
-9.5829099504 -9.4232245458 -9.9057602764 -9.7498127818 -9.8023277661 -9.8708487712 -9.9320578996 -9.8995045981 -9.9916573092 
-9.7266547497 -9.9715048838 -9.9700692161 -9.895140694 -9.9571293321 -9.9455847908 -9.8619136245 -9.9613138 -9.9891728898 
-9.5910824299 -9.6881126212 -9.6682204843 -9.9623329648 -9.8568998349 -9.9526494247 -9.8700914584 -9.9270388005 -9.9732619054 
-9.964902331 -9.9618427556 -9.9875870186 -9.9227872346 -9.9290422161 -9.9174163518 -9.9962632612 -9.9962416881 -9.9932706621 
-9.996278586 -9.9982527061 -9.9389016236 -9.9993454272 -9.9998919037 -9.9997469453 -9.9985274481 -9.9991595387 -9.99899003 
-9.9990939797 -9.9958050081 -9.9913950686 -9.9913755672 -9.9887733636 -9.9997064342 -9.9547598011 -9.9855161489 -9.9995181746 
-9.9995031761 -9.9979855503 -9.9996525837 -9.9827196431 -9.9923035433 -9.9839974877 -9.9895163324 -9.9967851557 -9.9815367234 
-9.9988246803 -9.997142799 -9.9996155896 -9.9992137671 -9.9996305743 -9.9992703378 -9.9923733357 -9.9964177262 -9.9954631979 
-9.9946535454 -9.9914720389 -9.9833731767 -9.9935839309 -9.9961738618 -9.993479789 -9.992143199 -9.9926599628 -9.9936072467 
7.5813234387 7.1925670694 9.3668698557 9.6078849111 7.7204637081 9.1102382561 9.8589270716 9.7760140784 9.6613328051 
9.1364560248 9.450020589 7.7820563837 8.549837748 9.8209345001 9.8715563078 8.9669857822 9.846674476 9.822879263 
9.9198434618 9.8727400416 8.6261819173 8.8375349527 9.4109723505 7.9829501694 9.5550895655 9.9797341032 9.8109590944 
8.9422702918 9.8913892045 9.651620461 9.9820146457 9.8433764079 9.8966546058 9.4510959961 9.6519359237 9.8922239236 
9.9968567828 9.9667933196 9.9653012926 9.9754366992 9.9052371219 9.9260113312 9.851560848 9.87800283 9.8940713106 
9.9939237364 9.944242372 9.939219907 9.9910029986 9.9012954549 9.9381686328 9.9769568339 9.631471782 9.7489249037 
8.2820698782 9.3923217401 6.0109159568 9.4223245786 5.0236064228 9.9340401721 9.757253829 9.9037696431 9.9301759957 
8.4675934426 7.9597496196 6.845351571 6.9449686932 7.8185537904 9.9270116346 9.4928543197 7.7510314367 9.9298218732 
9.9982120234 9.9982356861 9.7465820002 9.7457263242 9.9051051824 9.8663288924 9.6968226509 9.9788771936 9.4180276297 
9.6740901944 9.4297202429 9.8484868037 9.5724673768 9.8655440085 9.9979565238 9.8619390019 9.9053421904 9.9040847348 
9.6392428815 9.5424914068 9.8348017241 9.6381018736 9.9329413425 9.3552706488 9.9883097381 9.4153113616 9.8520341743 
9.9928989227 9.9607624608 9.9886340685 9.9679645971 9.2901778726 9.3751625865 9.1970544553 9.9976393851 9.8913529729 
9.9831840868 9.9879280879 9.9095129445 9.9825717161 9.9969987306 9.9541317877 9.9739964289 9.9685662866 9.9817601151 
9.956572778 9.9324766709 9.9794822157 9.9473283244 9.9228496985 9.9899034869 9.9474870205 9.8637369257 9.917863786 
9.9927571919 9.9682420472 8.2281122997 9.7987927516 9.398451421 8.6676446916 9.8202062238 9.3357485506 9.8466881929 
9.7358157874 9.94600805 9.9668114511 9.2933875193 9.2724749631 9.4605440483 9.9035688507 9.7981878642 9.8612968845 
9.9515560764 9.9758948063 9.9917727647 9.9896158794 9.8643032538 9.9709819218 9.9705266907 9.9734439947 9.9598859704 
9.9832360353 9.9593739062 9.8474406154 9.3041228799 9.7977225683 9.8839571195 9.9715406423 9.973198318 9.972622285 
9.9617823457 9.7778200897 9.2957092519 9.7931042067 9.8596128154 8.7704288679 9.879519179 7.7559105854 8.8316188418 