# vtk DataFile Version 5.1
vtk output
ASCII
DATASET POLYDATA
POINTS 1244 float
-0.031786 -0.057402 -0.148091 0.038006 -0.0438468 9.61095 0.110004 9.73059 0.124815 
0.0335579 9.67841 9.72425 9.59511 0.223014 0.145369 9.68353 0.125566 9.64433 
9.76182 9.77861 0.092644 9.78218 9.77477 9.9697 -0.191985 -0.14698 0.95246 
-0.202922 -0.250671 1.87105 -0.140319 -0.139684 2.89813 -0.235219 -0.202317 3.8411 
-0.0914507 -0.123782 4.97539 -0.167766 -0.149574 5.96892 -0.256204 -0.280044 7.04151 
-0.247042 -0.314629 8.04693 -0.276323 -0.304091 8.90377 0.0131583 0.912459 -0.0419541 
-0.17172 1.84652 -0.155196 -0.0152556 2.89021 0.0277316 -0.0680683 3.88847 -0.15827 
0.101045 4.95698 0.0087653 -0.12348 6.06889 -0.0582755 0.0514403 7.09564 -0.0311454 
-0.197275 8.08008 -0.232275 -0.0970752 9.02477 -0.0499656 -0.275161 9.88282 0.854649 
-0.218437 9.78071 1.86355 -0.253577 9.87413 2.92279 -0.0941404 9.66735 3.90767 
-0.0372705 9.58628 5.0194 -0.0466349 9.6452 6.05804 -0.250249 9.82126 7.04939 
-0.325125 9.74081 8.0371 -0.188057 9.68616 8.89194 -0.191975 0.783867 10.0025 
-0.0570788 1.8903 9.67124 -0.0559094 2.987 9.73814 -0.0338248 3.97532 9.58448 
-0.161399 4.98284 9.65838 -0.126106 5.96649 9.76533 0.0264157 6.93439 9.62965 
-0.184114 7.86478 9.89776 -0.159394 8.98808 9.8719 9.82085 -0.0913165 0.927564 
10.0732 -0.277008 1.9046 9.91809 -0.254964 2.94154 9.68458 -0.0834739 3.97083 
9.82385 -0.20898 5.01782 9.80137 -0.210769 6.04356 9.86184 -0.248047 7.04711 
9.84988 -0.218668 8.0272 10.1031 -0.390504 8.91011 9.86751 0.972783 -0.342057 
9.60398 1.9757 -0.139438 9.68123 2.9668 0.0414693 9.62028 3.94013 0.0318914 
9.69096 5.00156 -0.0442867 9.73721 6.04292 -0.198412 9.64426 6.90996 -0.0686834 
9.8441 7.97972 -0.319359 9.73981 9.05495 -0.173121 9.86069 9.78217 0.906331 
9.73864 9.65529 1.80659 9.58722 9.51587 2.88905 9.86285 9.80257 3.89303 
9.67976 9.6752 4.87751 9.60261 9.60548 5.99955 9.75899 9.75284 7.02978 
9.85935 9.79359 8.02169 9.94642 9.96824 8.98461 9.98587 0.899852 9.80173 
9.81167 1.9753 9.90252 9.61479 2.93267 9.57438 9.77535 3.90156 9.76338 
9.67061 4.95666 9.66671 9.71861 5.95722 9.63878 9.53352 6.94175 9.50163 
9.97551 7.84391 10 9.87656 8.98654 9.91051 0.935805 -0.122625 -0.102317 
1.94546 -0.184442 -0.123164 2.87894 -0.091372 -0.115138 3.89798 -0.0657035 0.0888242 
4.95531 -0.163442 -0.0612008 6.05225 -0.143707 0.0236523 6.98619 -0.14549 -0.299881 
7.92727 -0.136509 -0.0585321 8.92008 -0.128928 -0.292645 0.899754 -0.173305 9.66571 
1.97381 -0.273092 9.79793 2.95166 -0.0837049 9.74934 3.96861 -0.0948711 9.62201 
5.0101 0.0122544 9.54813 6.0158 -0.109417 9.70012 6.97894 -0.0476126 9.84671 
7.93861 -0.288439 9.82172 9.03715 -0.238855 9.85997 0.850163 9.88586 -0.158239 
1.92306 9.9418 -0.145987 2.84237 9.70832 -0.16802 3.89139 9.80772 0.0737968 
4.96211 9.84928 -0.072389 6.02628 9.78223 0.0386029 7.003 9.69188 -0.00268051 
7.97144 9.97345 -0.0978458 9.01961 9.91518 -0.227735 0.810637 9.82799 9.74948 
1.97659 9.80914 9.75873 2.96428 9.72257 9.90028 3.77666 9.69004 9.44575 
4.90884 9.75873 9.77512 5.99352 9.72236 9.53555 6.90622 9.70989 9.77544 
7.97063 9.77641 9.69974 8.85671 10.1265 10.2136 -0.403739 0.415053 5.00565 
-0.415581 0.315447 1.74656 -0.412395 5.64378 1.92608 -0.556432 8.14525 3.41814 
-0.424571 8.28767 0.32623 -0.484635 5.64897 8.03642 -0.388039 8.39424 9.52497 
-0.624769 8.19602 6.5428 -0.421386 0.248194 8.19744 -0.376463 2.90654 9.45121 
-0.298992 2.92268 0.413008 -0.321341 5.64546 5.01029 -0.385129 2.9883 3.45967 
-0.425952 2.97393 6.54295 -0.270386 0.306217 9.35309 -0.378577 0.316227 6.54069 
-0.46111 0.252817 3.46422 -0.265449 0.45632 0.446862 -0.457535 4.27399 8.69079 
-0.400221 5.6319 9.23018 -0.50079 7.00711 8.77687 -0.566001 6.95042 7.29164 
-0.65802 8.2355 8.07769 -0.34931 9.30851 8.87898 -0.416049 9.3934 7.40326 
-0.450975 9.318 5.6487 -0.333442 4.30256 1.18117 -0.210955 5.64056 0.471993 
-0.531664 6.9791 2.68723 -0.457606 6.99256 1.1234 -0.616528 8.18461 1.92212 
-0.42681 9.37158 4.22785 -0.48923 9.44988 2.56754 -0.523633 9.39076 1.03874 
-0.547164 8.15344 4.98599 -0.425773 6.97507 4.22614 -0.333246 5.64936 3.43823 
-0.392533 6.96677 5.77485 -0.316864 5.64992 6.54954 -0.381001 4.31466 2.6845 
-0.457219 2.9759 1.91775 -0.381525 1.64971 1.15048 -0.542966 1.68073 2.69853 
-0.507972 1.68142 4.22578 -0.420489 4.31006 7.28872 -0.578542 2.98177 8.03289 
-0.548885 1.6806 5.75142 -0.655442 1.69253 7.29536 -0.634929 1.66211 8.78622 
-0.401846 2.96658 5.00133 -0.273874 4.3094 5.79038 -0.273325 4.30749 4.21672 
-0.693089 0.416733 8.74474 -0.582161 0.252103 7.3901 -0.53157 0.266583 5.70295 
-0.389278 0.339744 4.22609 -0.331346 0.306481 2.63201 -0.342236 0.448184 1.09326 
-0.473162 3.5813 9.07681 -0.368324 4.32457 9.25145 -0.359823 5.02186 9.0448 
-0.50529 5.00953 8.37672 -0.540727 5.67986 8.66198 -0.498362 6.32146 8.4295 
-0.492992 6.30765 7.67154 -0.620942 6.96537 8.06784 -0.436372 7.6923 9.24189 
-0.607982 7.60237 8.48513 -0.522288 8.20711 8.81431 -0.625456 7.58769 7.67833 
-0.581981 7.60071 6.9333 -0.749505 8.18077 7.29979 -0.498484 8.87128 9.1945 
-0.445618 9.55056 9.4975 -0.761574 8.84591 6.95321 -0.432033 8.74307 6.20757 
-0.471119 9.3359 6.48631 -0.538695 9.50812 8.19165 -0.607346 8.90469 7.75421 
-0.623298 8.79527 8.41909 -0.416725 7.07774 9.46157 -0.273109 6.34069 9.15316 
-0.326766 3.61452 0.721532 -0.233372 4.30799 0.486762 -0.354468 4.9843 1.55748 
-0.266931 4.96987 0.774116 -0.423602 5.65815 1.20506 -0.459858 6.32049 2.29518 
-0.467431 6.31739 1.54305 -0.636959 6.95894 1.9244 -0.581742 7.61129 3.07837 
-0.569607 7.59598 2.29996 -0.695726 8.20245 2.67565 -0.585053 7.59384 1.51939 
-0.417731 7.69051 0.718696 -0.572871 8.22367 1.09958 -0.552685 8.76843 3.78416 
-0.647444 8.83318 3.07997 -0.458348 9.42009 3.48574 -0.466426 8.80917 0.613041 
-0.227408 9.39033 0.349369 -0.477609 9.46303 1.7714 -0.652268 8.8218 1.50048 
-0.573865 8.80215 2.26445 -0.310292 6.98033 0.400797 -0.248963 6.28627 0.727403 
-0.392964 9.22716 4.98777 -0.517516 8.68215 4.58728 -0.579282 8.1829 4.18997 
-0.61651 8.70183 5.40277 -0.473081 8.17268 5.77172 -0.555661 7.5822 3.82438 
-0.436521 6.9894 3.44954 -0.408789 6.31164 3.05918 -0.417911 5.64455 2.68894 
-0.385796 6.32948 3.82149 -0.332703 6.32466 4.60943 -0.243923 5.65415 4.21068 
-0.488358 7.59216 6.15886 -0.458296 6.96217 6.53125 -0.292157 6.32621 5.39409 
-0.410883 6.31579 6.15668 -0.284038 5.65658 5.79218 -0.431636 6.31317 6.92568 
-0.45793 5.64503 7.2922 -0.357323 6.98442 4.99498 -0.501196 7.58751 5.37526 
-0.462011 7.60521 4.62439 -0.38029 4.98066 2.29789 -0.380579 4.31581 1.92271 
-0.40864 3.65852 1.5287 -0.444601 2.97064 1.14526 -0.37574 3.65384 2.30635 
-0.339541 3.64859 3.05814 -0.447728 2.98638 2.68252 -0.407835 2.28742 0.684544 
-0.32156 1.55233 0.386059 -0.351917 1.04612 0.754989 -0.584239 1.03746 1.49912 
-0.476106 2.32381 3.07512 -0.440675 2.319 3.84455 -0.509135 1.67468 3.46489 
-0.470253 0.979201 2.31074 -0.504316 0.994657 3.08334 -0.424957 1.01313 3.81126 
-0.504899 1.03786 4.60098 -0.517276 1.68034 1.92558 -0.44616 2.32853 2.31254 
-0.525644 2.31054 1.53122 -0.458673 4.99238 7.65423 -0.513611 4.31701 8.01799 
-0.421354 3.64327 6.92295 -0.500677 3.64092 7.65903 -0.519711 2.99084 7.29609 
-0.479269 3.63032 8.35808 -0.639741 2.96059 8.75713 -0.486519 2.31626 6.1523 
-0.534623 2.33114 6.90725 -0.559747 1.69223 6.54113 -0.481519 1.04816 5.38884 
-0.500205 1.00619 6.15569 -0.60408 0.996055 6.92412 -0.532929 0.987578 7.69097 
-0.42016 2.26138 9.14786 -0.410354 1.50452 9.50756 -0.55712 1.03289 8.40401 
-0.31074 0.968138 9.11292 -0.647706 1.66357 8.05313 -0.52731 2.26515 8.39149 
-0.599038 2.33213 7.66876 -0.466541 1.65976 5.00164 -0.432021 2.30714 5.39279 
-0.406961 2.98074 5.77314 -0.447748 2.31059 4.61075 -0.359541 2.95706 4.22097 
-0.388857 3.6488 6.16444 -0.298348 4.30859 6.54573 -0.382122 4.97998 6.91558 
-0.347193 4.97841 6.16455 -0.185172 4.97701 5.40199 -0.364192 3.64391 3.83321 
-0.309944 4.31553 3.43734 -0.26171 4.97759 4.60651 -0.321846 4.97573 3.82157 
-0.32591 4.98324 3.05067 -0.3169 4.30921 4.99964 -0.326251 3.63502 4.60908 
-0.310543 3.6402 5.39555 9.75341 0.422997 4.97678 9.84272 0.38088 1.83371 
9.89551 5.64448 1.94195 9.8198 8.12031 3.4245 9.8972 8.33675 0.331656 
9.78725 5.65365 7.97819 9.95557 8.37947 9.55769 9.86975 8.14348 6.53439 
10.0825 0.282073 8.13256 9.79809 2.9756 9.35468 9.87578 2.93519 0.489374 
9.69568 5.65051 4.99989 9.78347 2.97892 3.4551 9.7612 2.98392 6.53547 
9.90384 0.294162 9.37594 9.7721 0.284377 6.45682 9.8455 0.33633 3.51866 
9.80759 0.403747 0.352139 9.85966 4.31354 8.59385 9.8034 5.62188 9.2174 
9.8479 7.00585 8.58399 9.79313 6.95304 7.28117 9.94576 8.13533 8.03362 
9.99774 9.30811 8.63606 9.92893 9.29741 7.31503 9.88012 9.31904 5.79147 
9.86342 4.29056 1.21186 9.86671 5.62172 0.450237 9.78301 6.97265 2.69419 
10.0305 6.96921 1.19059 9.9427 8.16864 1.9304 9.74453 9.25835 4.26939 
9.81828 9.33759 2.56714 10.0132 9.29632 1.04503 9.73992 8.05687 4.98765 
9.71214 6.96958 4.22462 9.7311 5.65121 3.45518 9.71136 6.96312 5.77693 
9.7062 5.65082 6.5428 9.78408 4.31263 2.6919 9.84059 2.97312 1.93724 
9.95188 1.65264 1.1428 9.89541 1.67812 2.69995 9.85664 1.66394 4.23626 
9.75346 4.31769 7.30242 9.86303 2.98265 8.00203 9.84851 1.67096 5.77169 
9.91716 1.66113 7.28231 9.95819 1.69158 8.74055 9.73834 2.97823 5.00104 
9.70038 4.31496 5.77178 9.72355 4.3149 4.22719 10.0072 0.458476 8.78989 
9.95367 0.268124 7.2981 10.0017 0.296513 5.7388 9.99354 0.218317 4.23125 
9.90324 0.374648 2.69617 10.0605 0.504022 1.10259 9.93658 3.64708 9.07775 
9.81473 4.26259 9.29044 9.84264 4.97792 9.07282 9.83265 4.96728 8.33029 
9.88539 5.63106 8.54372 9.91801 6.30267 8.36528 9.82922 6.30836 7.65715 
9.91386 6.97303 8.00152 9.9392 7.68191 9.12479 10.017 7.62948 8.40008 
10.0328 8.16824 8.76503 9.93825 7.58162 7.65055 9.80416 7.58763 6.90143 
9.91566 8.15426 7.30773 10.018 8.72836 9.16871 9.9367 9.37987 9.38058 
9.93471 8.72542 6.91954 9.78689 8.74891 6.15344 9.9177 9.38093 6.59044 
9.95391 9.33844 8.04145 9.96602 8.72223 7.63751 10.0495 8.64456 8.35722 
[...]
CELL_DATA 2484
SCALARS scalars double
LOOKUP_TABLE default
-2.886484011 -3.4919664554 -5.2516433708 -3.5286880463 -3.3512124416 -3.8629130179 -2.904666808 -5.7995325396 -6.8261696731 
-5.1753167322 -5.0253641258 -3.5403702949 -5.19107409 -4.6994198043 -3.4388347419 -3.6115164486 -2.1676821946 -2.4985207777 
0.88649351256 -2.0828493068 -3.3373669314 -3.6253297286 -4.7402662915 -1.6701123222 1.2756715306 1.0417380478 1.9090045568 
-0.55849501358 0.27184188236 -1.3296678704 -0.14962587438 -1.4178900449 0.57036320101 -1.4308386373 -1.5221027194 1.0398067419 
-0.16443004718 -0.90393605181 -1.5154600807 -1.889124975 -0.63293949702 -0.080504478509 0.39839266846 0.19051990693 -0.57087012399 
-1.2629798124 -1.7700058687 -2.4134454477 -0.64192074972 -0.5075322862 -0.92492992528 0.062295566159 0.92313322166 1.7147454288 
0.30686567576 -1.3802999183 9.5141322048 3.8447651452 3.0868730288 0.68300208304 5.2275729228 -0.55079126874 1.3639061956 
3.28566175 7.9236371902 6.347753651 3.8360460371 7.2177030106 4.4520914978 3.5882918232 5.8333365291 -1.031215484 
1.2644180946 0.77575631292 3.9045816311 -0.48341421549 -0.83001890116 -0.58733515136 0.69496275516 2.1063172067 2.4134163554 
1.1638375348 -0.88917582427 0.11409086054 -3.3830997775 -1.5400249958 0.32795157978 1.9723200841 1.669555031 -0.18813371332 
2.0182518588 -2.2793234037 -2.4664755551 1.7840456169 0.90397902067 -1.5013690181 0.84937220483 2.008212107 0.3777145954 
0.30946864472 -0.95020659324 -0.44824563528 -1.5660678198 -2.0603422475 1.4187522252 -1.183386967 0.11700436787 0.76913780771 
-0.75579878572 -1.8882554326 -1.2376270493 -2.6145547695 -0.70243769218 -0.67345044028 -1.4275366468 -1.9680570624 -0.67137482043 
-0.16532555505 -1.4103823667 -1.2624939056 -0.66730382473 -0.6109559709 0.24499063315 0.93778954965 -0.68558351292 1.666859631 
2.8039188168 2.0826921584 7.852189513 4.562288923 6.3976213286 7.8091865522 1.9487643152 1.6944366873 3.580925367 
1.6429308996 4.5404824927 3.01432086 4.2911108865 6.0996799308 6.3229238304 0.54231859519 5.3138453809 0.23678254635 
-0.9360116293 0.075269693706 1.7256699653 1.2725160317 -0.40928729102 1.3584928558 0.11959216121 1.3517596042 2.4832293967 
2.1973332291 -0.59174561297 -0.3893861378 -3.080424791 -1.4219581868 -1.420994223 0.54080465681 -0.73494358708 0.69572605721 
0.047808676093 -1.7644914408 1.4857893275 1.7641397148 -2.0857989355 7.0189495064 1.6111663758 8.0088709834 6.8714707004 
0.24073169455 0.88554539586 0.81484824186 1.7394596953 -1.9694806283 2.1762665142 -1.0398393899 -0.34563754448 3.0352042775 
1.6884004542 3.0546947492 0.2452284453 -1.5461642483 -2.0298455832 -2.1266274426 -1.4590606267 -0.66085191481 -0.48841055003 
-0.23218291783 -1.029802395 -1.4055611529 -0.7379285179 -1.6900707835 -0.95038554549 -0.69616620391 -1.1207938923 -0.58953781269 
-1.474049008 -0.9860572898 -1.0192817045 -1.1676285143 -0.62750563565 0.16080655927 -1.6517127756 -1.0369593707 -1.6025346509 
-0.63802248289 -0.32431761437 -0.057763023655 -1.5546317748 -1.2605049912 -0.22797135726 -0.57482692694 0.13732627132 -1.2695575725 
-0.89263535857 -0.67347278757 -1.6169990675 -1.0041354309 -0.16026148693 0.37064690591 -1.3179725764 -1.7476728222 -0.21941186774 
-1.1104052822 -1.1803929296 -1.1345291582 -2.025882733 -1.9829512936 -0.67958049581 0.042797012613 0.0074631555748 0.20043807415 
0.59818788637 0.48942061929 0.61492040639 1.1089794917 -0.35310034908 1.1322817851 1.1666992841 1.3413863623 0.95085641718 
-0.076371398916 0.81230055528 0.17250859801 2.1990194254 -0.89614330093 0.39947186496 -0.03909856578 1.45823054 -0.83108661776 
-2.7694097997 -1.8205990634 0.025526426957 -2.2338224415 1.0909131065 0.91399321971 -2.1974378193 0.77445613206 1.0531307465 
0.78498154934 -0.7983673299 -1.5908229109 -1.3973773681 -2.1970878788 -0.62220211485 0.047408109882 -1.620042551 -1.1191837145 
-0.022256312874 -1.248745939 -0.31669029169 -0.68659713787 -1.8536169916 -0.84945070012 2.1722229552 0.10393704898 1.2541277506 
0.89771504989 -0.094349036406 0.19614847016 -1.375391802 1.1204712366 0.8201112541 0.40337703605 0.44067099304 -1.173900088 
1.2844837023 0.49355687216 -0.020076937321 0.12402572386 -0.30046543143 0.45857254091 0.598532245 0.7769378126 0.72932006606 
0.88427590413 0.28360954883 1.8857212083 0.65372614268 2.4704379707 1.3534426851 -0.089868541982 0.48459949395 -0.35070185378 
1.3007770177 1.0715442771 1.1048329885 0.7631755852 -0.89336018772 -0.10360991161 -0.70595397329 0.5536827462 -1.2107384577 
-1.7972758187 -0.14216399143 0.28716288622 -2.436122917 -0.060691454944 -0.7946438289 -0.10666601029 -0.45040445499 1.4101569312 
2.903173037 3.1538542755 -2.892838894 -0.41418299776 1.6291930382 3.7576791083 -0.13425549794 -3.2866170053 -1.6451911995 
-4.1770107732 -2.3847322457 -1.3287382621 -1.6926410169 -1.5501526636 2.6006962192 -0.99554622942 -1.1426682692 -2.2714617349 
1.3590921185 0.75331869897 0.960507282 0.72070325463 -0.22775987057 0.80166145395 1.8674550593 1.3506333669 -1.4045981623 
-0.43959867103 0.26744174755 0.42863848429 1.4259561202 1.0556631439 0.41338473155 0.77808326028 1.0018147707 1.0230144077 
1.0414789211 1.3061655696 0.57740489414 0.61775376056 1.2007468925 0.41019677121 0.31021096628 0.89992025989 1.5387056156 
1.5906651907 -0.004478849227 -0.18696508098 -0.062839360868 -0.55451650892 0.090450925949 0.6943156172 -1.7150071599 -0.2299456277 
0.71652090805 -0.90989356054 -0.33784159752 -0.98680131963 0.49798823893 1.0836063025 -0.092507112544 0.62094950658 -0.27179034001 
-0.30392661866 0.48332215879 0.70632050063 0.42765213223 -0.7632731366 -0.52366089399 -0.98673147309 -0.13999530566 0.30575909405 
-0.45007122035 -0.20971679265 -1.4516058863 0.49633255215 1.6208306271 1.3727127779 1.0719966642 0.1248511528 0.80319412266 
0.20941997245 1.1428848467 1.3954554777 0.41287275897 0.86544322438 1.2335834179 0.22654794462 0.46049352954 0.023069407153 
-3.4291719954 -1.5152807552 1.2300480167 1.3893825944 -3.9420831211 -0.70451522744 1.0536642887 -1.9169508443 -3.5685601043 
-1.8336015332 1.2406302729 -5.7435894604 -1.1365077 0.516867349 0.80077651012 3.074593579 -2.899240759 -4.568624151 
-5.1393925076 -4.1496362504 3.2380967971 -6.2586720874 0.86854143899 1.9993211213 -2.4290044234 1.6840902258 -0.91095572137 
1.3051884454 0.35658687827 0.33243750032 -0.23004329935 -0.7525645001 -0.1979445429 1.1257581934 -0.03904414323 0.47606310875 
-1.2411217485 0.65096420749 -0.40511753808 -0.61523876542 -2.2667327737 -0.99287291567 0.52505213765 -1.0594919894 -1.2219182654 
0.14834080289 -1.5367777095 -0.66821948187 0.61398160298 -1.3164493316 -2.2606195756 -0.96190359931 0.23800835541 1.0057892407 
0.91189859343 0.6970830573 1.0771973372 0.36162301942 1.0291024162 0.15480137329 0.1928348778 -1.8117715277 -0.70517125187 
2.8740507137 7.2544885256 5.7699435463 3.6457871583 1.9670686111 0.40062112099 1.1262106345 2.0133622956 -0.72688581661 
-0.6343383352 -0.62994540559 0.64308965317 -1.2986853372 -0.53882660544 -0.017010030323 -1.1976166293 1.0580183279 0.43742676699 
0.88491103386 0.025768907573 -1.2662150779 -5.914955205 0.99111181673 -0.93799772704 -1.3236631045 -0.46419212045 -0.40315855822 
-1.029124331 0.10027416039 0.86181062008 2.1869475191 -1.2799332981 0.53560253997 0.27657997128 -0.8545000894 -0.6344507472 
0.62454524652 -1.0784117675 -0.49718250385 -0.71615148342 -0.79082410226 0.15412860708 -1.3154768311 -0.20571504651 1.3204338666 
0.93905900132 -0.075885845069 -1.5819130813 -0.62232657844 -1.0909717006 -0.93705624317 -2.7021224974 -3.0294428289 1.6814775819 
-1.0071502359 0.52871371569 -0.50963013356 -1.4858546049 1.0110266993 -0.050065076731 0.24557628396 -1.3821001356 1.8714588877 
1.6224010856 1.5061958145 -0.956564735 7.7415221312 1.9871550857 -1.6473656659 -1.7780959538 1.2879448632 1.4000249503 
-2.4531239911 2.3606517924 2.9069772949 3.8436856043 8.5639195754 8.2604201999 -1.7416165507 6.3479151951 0.74618008654 
-0.31274769572 0.3794908219 1.3868934673 1.4434331457 0.22759384558 2.1349602944 0.32169032303 -0.81029431017 -2.092641299 
-2.6776904387 -0.029500144605 -0.23538664763 -2.6021120643 -1.4244332452 -2.8100198353 0.68658638862 0.58915176158 0.5153508687 
1.1368739098 -1.8466177171 1.6319066274 1.148213466 0.27117634225 -0.73455848715 2.4780811603 6.5746707847 0.27069973414 
-1.1151730621 -1.5696424322 -0.88641276347 -0.91188804566 -1.2295591852 1.0448665759 0.41711427861 -2.2538285406 1.2579896917 
2.9445204736 3.7623996545 -1.0567598541 -1.7942505274 1.3505629158 -0.25201155844 0.0041657152759 0.10074267108 0.09654381625 
-0.25351244347 -0.12048224763 -0.036908598307 0.1946236785 0.018676155733 -0.00914471405 -0.055608123051 -0.26377710213 -0.075029700159 
-2.0114166606 0.70385266327 -0.24174143419 0.47961920107 -0.026593902437 -0.13562762669 -0.22775321437 -0.23310190336 -0.36262867143 
0.2465709507 -0.88592389707 -0.29291301274 -0.122451043 -1.1638757293 -0.4999873633 -1.0715317353 -0.0013448274418 0.042298897733 
-0.21219459262 0.073663666465 -0.404108102 -2.7383518002 -0.40730903474 -2.1250191438 0.74983203005 -1.9815260606 -3.6827996347 
-3.5425187386 -0.25610720891 0.18496360984 -1.0906335602 -0.61625312635 -1.3704382279 0.61851618301 0.15064475782 0.48080586105 
-0.31961493322 0.65994223257 0.31740586946 0.80960164147 0.12980877603 0.30085561379 0.34541961377 0.35694006444 0.19738514903 
-0.02900166989 -0.066652971311 -0.13784840113 0.012125788006 -0.4149554282 -0.54488528226 0.78384724272 0.84965198873 -2.0296143899 
-0.41310179097 0.93344015066 2.9898336729 2.8927886231 0.55003864453 -2.7830560352 2.7065752914 0.79324926485 0.86575985809 
0.79099342355 1.9377849408 -2.2266281592 -1.9731325404 -1.7574548952 1.299267767 -0.14431778659 -0.90847989637 0.67347012331 
-1.6461802668 1.0136881664 2.0622143829 1.5853715555 -2.0179606446 1.7730443931 0.21486477784 0.9315936658 0.69560541761 
0.48353169849 0.62592166354 0.5192620356 0.71943602498 0.4755313853 0.43815492493 0.13827742229 0.66840997351 0.60535562983 
0.64539555195 0.65985836717 0.16087528938 0.11450467255 -0.021705314405 -0.072608464816 0.36919534129 0.50295008629 0.73040204168 
0.6991232472 0.090105495934 0.81600747261 -1.2666290076 0.33799728064 0.75808756787 -0.056306337184 0.3159587365 0.27119441564 
0.77980460774 0.8050615983 0.65165592072 0.38761434382 1.3724134812 -0.98761776059 -0.56068859034 0.84573045392 1.1778323466 
-1.3183205158 -0.22192771879 -0.55281434321 -2.0651705148 1.2817990143 1.0178987017 1.4714552028 3.5883823427 -1.8581706558 
1.7375786814 -1.2827860589 1.0949426433 0.081227972086 -1.1918598566 -0.43970535934 -1.4737320755 2.3313462618 0.56721140117 
-4.0290477987 3.1902689271 0.68720026215 0.65159186935 -0.15343082814 -0.3313474216 2.4817459308 0.91034457278 0.99486656894 
0.72211306136 0.89088313334 0.63963261981 0.68963691923 0.91571792567 1.1941705095 0.94893715225 1.8924025991 -3.114116663 
1.8243569288 1.5339660202 1.7547221234 1.0416878767 0.68661458451 0.55136007286 0.77628181289 0.91114962462 0.61327803194 
0.58978752308 0.65726527422 0.60468256024 0.97779146065 1.1651028143 1.0086322922 0.34000312052 0.46854301411 0.23816831795 
0.53245267671 0.13893175726 -0.061409220835 -0.13920954075 -0.12669710213 0.036427375172 -0.013759550438 0.026326066206 0.0576149147 
0.05353924314 0.038809211364 0.12449739402 -0.096466730955 0.30572398462 0.2016157547 0.16652323887 0.23287390438 0.11881128373 
0.06394904909 0.12209607435 0.15319366505 0.071439234962 0.1384498843 -0.46949901066 0.18653124765 0.16919994328 0.11248528855 
0.13605771226 0.075415992254 0.075526245845 0.13898818478 0.087872944119 0.058856811714 0.21905691464 0.29132401915 0.2763801206 
0.22778310375 0.20923898689 0.34130601232 0.41332140561 0.22270383094 0.28670642635 0.12649823671 0.19907954829 0.21741127529 
-7.3773851106 -5.19083641 -9.9618243604 -9.7773271954 -6.5915570147 -8.2654064525 -9.8993652946 -8.3312643296 -7.454099615 
-7.3131780594 -9.6229655074 -5.7172412224 -8.556766961 -9.7646256405 -9.8276993447 -9.7364945005 -6.8711230609 -3.637982569 
-3.8171232101 -6.3031972388 -9.9528530759 -5.6754367031 -9.2137750796 -9.6957632348 -8.8463064995 -8.1156095854 -8.9825489655 
-9.0165752492 -9.8308181046 -8.7958093141 -9.9164956745 -9.8349025793 -7.2331317519 -9.9103191567 -5.7767075756 -5.7218641921 
-9.9988091155 -9.5922401291 -9.7884528609 -9.7354458366 -9.4055695414 -9.5438765984 -9.7339055875 -9.4525755946 -9.6942868483 
-9.8859364828 -9.9781302877 -9.8595562932 -9.9033317905 -9.7012229464 -9.5292616154 -9.9221838083 -7.3375487781 -8.9188367621 
-9.2587394487 -7.6789050121 -8.6467035818 -9.3045084325 -8.2537157438 -9.857872344 -9.9399220415 -9.9308304068 -9.927852333 
-7.7151744165 -7.3607554686 -8.2358075948 -8.1559633507 -9.3529324886 -9.8730668039 -9.6844245235 -8.9886415496 -9.9921394975 
-9.8821698909 -9.856879977 -9.8645525267 -9.7262831099 -9.0952693879 -9.980998673 -9.8357001635 -9.8729595477 -9.7425818018 
-9.7601806979 -9.8328117394 -9.9391381648 -4.6471507768 -9.9870330598 -9.9807394373 -9.2551552193 -9.9868893617 -8.9513876643 
-8.8250809614 -8.8761651872 -9.9806365415 -4.694563112 -9.8459559751 -8.9834956847 -9.8391703639 -9.5418963666 -9.3745413403 
-9.9990803876 -9.9932340144 -9.8000300031 -9.9920232716 -9.2497086864 -9.5352030853 -9.5371591997 -9.8291201123 -9.3821804302 
-9.9704823737 -9.9648035712 -9.9601968056 -9.9613944912 -9.9499811627 -9.8601841117 -9.9474822285 -9.8738228154 -9.89402429 
-9.9582970002 -9.7520543249 -9.9297928494 -9.9523274916 -9.8978723227 -9.9516554505 -9.9817798222 -9.9578359442 -9.5269003256 
-9.8349068017 -9.9429558162 -9.7105895802 -8.7294696472 -8.657797864 -9.3340607933 -9.6997055183 -9.4713284708 -9.5050010213 
-9.5355475011 -9.2335135359 -9.1987332436 -9.4815482583 -9.6795524367 -9.7959730056 -9.3846803029 -9.2973623819 -9.7380360496 
-9.8524802468 -9.4633702873 -9.6716719074 -9.9901310321 -9.9114691238 -9.9513083187 -9.9326000612 -9.6324490114 -9.29689109 
-9.3733874725 -9.9869682636 -9.6404857977 -7.2499879386 -8.9415131819 -9.957551245 -9.8549969453 -9.944901756 -9.9357875147 
-8.8808124748 -9.9959686555 -7.0547737482 -9.3641964379 -9.5516616555 -8.4555232327 -9.5536925697 -7.177448534 -8.6769730496 
-9.9536768063 -9.8833513844 -9.9128954425 -9.9303257665 -9.9304723287 -9.7830730845 -9.9776681597 -9.8818874005 -9.8245056309 
-9.8088092855 -9.9342828173 -9.9941181545 -9.9607655854 -9.8708723004 -9.9524671527 -9.9644799531 -9.9784764082 -9.9362225808 
-9.9804961951 -9.9822981137 -9.9458211431 -9.977085383 -9.9468215974 -9.9462726287 -9.9480002371 -9.9635969038 -9.9523440284 
-9.8555887328 -9.7387453102 -9.8789129825 -9.873220519 -9.9841615666 -9.9653458403 -9.90087379 -9.9211932147 -9.8029531782 
-9.9647643563 -9.9041484634 -9.886170127 -9.9760592967 -9.8108024963 -9.7976933052 -9.834053691 -9.9824387389 -9.9539322534 
-9.9623126626 -9.9453272312 -9.7479993601 -9.7798172967 -9.8746767057 -9.9806680954 -9.8597341001 -9.8472244489 -9.9878781797 
-9.9615365972 -9.8157055682 -9.918688188 -9.874263743 -9.9286491475 -9.9792049023 -9.9986455423 -9.9855150815 -9.9794376279 
-9.8866351781 -9.801522759 -9.9790499093 -9.8296465706 -9.9323415079 -9.9447268029 -9.8731452567 -9.8794859581 -9.9441539683 
-9.9436469798 -9.8764729815 -9.90047462 -8.9388972438 -9.6928931361 -8.8750523774 -8.775347841 -9.6983708033 -9.540292743 
-9.0252740323 -9.6415664571 -9.821248828 -9.0495729679 -9.9085505544 -9.6710899153 -9.6050364008 -9.9602974267 -9.999089208 
-9.9716349906 -9.7978027759 -7.810278938 -9.4714957456 -8.5537860872 -9.9659177104 -9.3959432947 -8.952764853 -9.8015822466 
-9.3421951735 -9.9892174314 -9.9933036704 -9.9857081486 -8.4332666349 -9.8103104716 -9.9214643931 -9.7955590725 -9.9690457289 
-9.9735234326 -9.9674131933 -9.9684173766 -9.9400628076 -9.9968178865 -9.7958064605 -9.9971688345 -9.9971351306 -9.9403044847 
-9.9919989744 -9.9862747163 -9.9094983269 -9.9244185684 -9.9132764212 -9.9047598644 -9.9655996129 -9.7924128804 -9.9078152656 
-9.815429159 -9.8330627 -9.9327182667 -9.7153287264 -9.8607285279 -9.9265108425 -9.9109174092 -9.9381443167 -9.9309756542 
-9.6272202081 -9.8453951308 -9.7987062198 -9.7791612864 -9.9974754426 -9.1868706615 -8.8968914467 -9.9667772847 -9.9086292398 
-9.1751073317 -9.9243723708 -9.9452709346 -8.6835225159 -9.8250860107 -9.8378361458 -9.7861039703 -8.7173020699 -8.668429671 
-9.1427544707 -9.5827339723 -9.3483217912 -9.8574222939 -9.1121301534 -9.6151789654 -8.118220254 -8.8709660528 -9.9256803317 
-5.2191900713 -8.1991023816 -9.3356957542 -9.9417926307 -9.9561745548 -8.8743178546 -9.6633228556 -9.7033994273 -9.5708710425 
-9.8128447442 -9.933993295 -9.6267361818 -9.8137355036 -9.7749838242 -9.8640024837 -9.556656196 -9.8129636528 -8.4674604678 
-9.8272432315 -9.7733718247 -9.677514447 -9.8076062496 -9.8844423981 -9.8758189356 -9.8768746391 -9.8962445037 -9.8938719984 
-9.7505000315 -9.7519677986 -9.8570745303 -9.9060462169 -9.8293134806 -9.9996581785 -9.9550675967 -9.8902357075 -9.8017199455 
-9.9074976642 -9.9201391696 -9.915231518 -9.9497794915 -9.9292114972 -9.9563814727 -9.9253400272 -9.9920235028 -9.9711712872 
-9.9838643042 -9.9185349546 -9.9125564707 -9.9899736051 -9.8566364897 -9.9225597837 -9.9743385249 -9.9783948706 -9.9422160579 
-9.9875046482 -9.9703445014 -9.9418799298 -9.9775535639 -9.9557051521 -9.9795594651 -9.9919705666 -9.9774559412 -9.9717304889 
-9.9466698509 -9.9762471845 -9.9891091697 -9.9478679103 -9.9320746644 -9.9430950567 -9.9242533422 -9.8625397049 -9.9597993735 
-9.9512042436 -9.7775773844 -9.9585754225 -9.9566084427 -9.9598362456 -9.9795774332 -9.8622189495 -9.9470651214 -9.9750708457 
8.9649252139 8.8280082216 9.9037276273 9.884434164 8.9834702269 9.6673352678 9.2916963581 8.0384140636 8.2012201884 
9.6414116584 9.6715238043 9.918173505 8.6554960534 5.4983022355 5.7501413562 6.6288222149 9.6985117709 9.6182260198 
9.6879064489 9.7179997258 6.742408519 9.9158004063 9.6495056841 9.2532454958 6.6538000598 9.8574713504 9.1082632157 
9.8042199512 9.8917339037 9.7566712096 9.7478430908 9.8183821675 9.8577933632 9.961421854 9.9974331289 9.9994637231 
9.8960934322 9.8588311499 9.9288862866 9.9005164788 9.8725034886 9.6959092606 9.8011737855 9.8410909197 9.7781645551 
9.9989166516 9.8890316293 9.84568439 9.792267565 9.8066624061 9.699596717 9.6947907838 9.4432432363 9.9509241066 
7.9018518946 9.8164627738 7.894629105 9.1325225975 8.8165148148 9.96569374 9.6164335417 9.8742401797 9.8748078799 
9.6332730826 9.4828619595 9.7824671341 9.4787115469 9.7110015609 9.8070635307 9.3722831055 9.7117080193 9.9422122217 
9.9558248732 9.8570563791 9.519893834 9.4608274176 9.6901877152 9.621014785 9.3784418473 9.4196548909 9.9381622268 
9.3600481708 8.8831470983 9.7947770215 8.7091023417 9.9243805796 9.8173886691 9.7521148275 9.98562358 9.9082797025 
9.4000274575 8.9987617658 9.7765122069 8.2782216749 9.7614728171 8.4587235701 9.6360896976 9.9393503309 9.617632625 
9.9133590154 9.9054410497 9.8754284674 9.9143572373 9.9840998449 9.6479064791 9.874069417 9.6456234907 9.7275647372 
9.9838073046 9.9654353006 9.9111388483 9.9790166469 9.9510121664 9.8992568879 9.9322655349 9.9019679591 9.9970582623 
9.9275334296 9.874575511 9.8848469014 9.9220017077 9.9230179709 9.9525641302 9.9239747021 9.9666029651 9.3727156728 
9.9923132368 9.9965557426 9.9283218245 9.9465702927 9.2876866698 9.2783245521 9.7356306277 9.3766812394 9.8578197926 
9.8528304961 9.8264158432 9.7165183974 9.4026936572 9.2610711163 9.2884626768 9.9979341228 9.8455658499 9.9616093678 
9.9512459611 9.9717497868 9.9454800279 9.9729715026 9.9555109496 9.9456118066 9.9870836809 9.9714006395 9.9942948679 
9.9924108793 9.9751150048 9.9838162599 8.9627875222 9.8822245473 9.9216532045 9.9468290861 9.9138260711 9.9701949779 
9.8848366406 9.9732148228 9.3022688002 9.7651249142 9.7711735822 7.5757089116 9.5206629624 9.178618089 7.1695235124 
9.9034364029 9.9659701655 9.9017325723 9.9437487984 9.9854804693 9.9290958832 9.9323324904 9.9665060106 9.7034662716 
9.3867486508 9.8171197719 9.9658333338 9.9820670701 9.9795511475 9.9835418203 9.9749661562 9.9810344367 9.9790381032 