# vtk DataFile Version 5.1
vtk output
ASCII
DATASET POLYDATA
POINTS 356 float
0.266461 0.292823 0.245847 0.254254 0.247811 9.60198 0.232583 9.43342 0.104994 
0.311236 9.33132 9.16261 9.38743 0.167507 -0.0215977 9.43593 0.280931 9.58218 
9.48224 9.08797 0.126933 9.51156 9.26495 9.38854 -0.295947 -0.0585851 1.10376 
-0.287368 0.011306 2.6897 -0.207964 -0.0514306 4.25446 0.0275101 0.00453184 5.74007 
-0.0976148 -0.0134353 7.33989 -0.0524391 0.097481 8.67325 -0.164543 1.2885 -0.0845233 
-0.327792 2.72142 -0.446431 -0.375677 4.52299 -0.387129 -0.362974 5.61972 -0.318578 
-0.420214 7.326 -0.310378 -0.0384968 8.706 -0.223847 0.0172304 9.54086 1.41022 
-0.0839236 9.45442 2.82996 -0.0619651 9.38678 4.28117 -0.0563678 9.44558 5.69219 
-0.141384 9.59005 7.16355 0.099011 9.53039 8.4925 -0.139223 1.27614 9.48742 
-0.18808 2.53463 9.68016 -0.232279 4.39588 9.34937 -0.486036 5.59045 9.65476 
-0.475655 7.35904 9.62741 0.0382453 8.62228 9.433 9.5587 -0.108299 1.1464 
9.56571 -0.0876121 2.65767 9.55228 -0.0900121 4.09959 9.44464 -0.15364 5.76703 
9.41317 -0.104402 7.37595 9.63024 -0.0610085 8.81959 9.52023 1.29067 0.101357 
9.53018 2.62578 -0.543008 9.5032 4.50147 -0.405723 9.62191 5.47754 -0.331829 
9.65626 7.46859 -0.231269 9.55303 8.56081 -0.207671 9.5537 9.44254 1.15649 
9.65738 9.33206 2.63067 9.67829 9.30072 4.23507 9.59591 9.29305 5.81405 
9.64077 9.58012 7.31985 9.60956 9.45853 8.60289 9.55566 1.32073 9.45524 
9.49857 2.61293 9.76128 9.46761 4.45319 9.33591 9.43489 5.42586 9.69413 
9.66925 7.17394 9.37712 9.57041 8.50427 9.78717 1.32667 -0.045205 -0.10165 
2.86266 -0.373307 -0.00577113 4.57454 -0.28016 -0.104993 5.82964 -0.254684 -0.120623 
7.41514 -0.267166 -0.247103 8.52179 -0.0112053 0.0178583 1.32979 -0.0251932 9.68828 
2.90097 -0.378399 9.79968 4.58867 -0.253331 9.79496 5.71808 -0.220644 9.69917 
7.52275 -0.242408 9.81593 8.61789 0.00793103 9.78434 1.1218 9.45058 -0.509473 
2.66534 9.66597 -0.269834 4.38654 9.53026 -0.406787 5.8609 9.4642 -0.26985 
7.49375 9.58656 -0.464001 8.86606 9.33423 -0.14388 1.2041 9.32165 9.53584 
2.64735 9.61286 9.48941 4.45608 9.31066 9.49858 5.85693 9.491 9.50742 
7.39861 9.60346 9.7038 8.90253 9.56796 9.73563 -0.530269 0.358224 4.94413 
-0.958742 5.76691 1.67545 -0.977954 5.83514 8.1813 -0.726835 0.341329 8.11158 
-0.709317 0.395417 1.78934 -0.662475 3.27774 9.08688 -0.34319 8.5194 9.19071 
-0.581554 8.68202 6.58002 -0.535353 3.1037 0.420512 -0.590799 8.64581 3.44707 
-0.332025 8.58902 0.365481 -0.625078 5.84791 5.00187 -0.809277 2.93079 3.37871 
-1.03576 2.92489 6.62981 -0.427774 0.429913 9.35182 -0.823921 0.266757 6.56811 
-0.45524 0.435977 3.42647 -0.155044 0.463116 0.299273 -0.901727 4.53277 8.99512 
-0.608364 5.99589 8.94939 -0.896356 7.26213 8.73407 -0.798922 7.24832 7.38145 
-0.553181 8.59542 8.14847 -0.713693 4.55879 0.728687 -0.610607 5.97442 0.381582 
-0.74024 7.29945 2.50412 -0.767587 7.31078 0.920002 -0.458098 8.63897 1.74298 
-0.306822 8.5456 4.99667 -0.816951 7.24885 4.13409 -0.895223 5.79269 3.41654 
-0.841706 7.24536 5.81398 -0.95241 5.77451 6.57679 -0.684871 4.3716 2.51783 
-0.975183 2.95965 1.68095 -0.918573 1.30663 0.745678 -0.760863 1.17638 2.60878 
-0.754561 1.28624 4.2441 -0.917164 4.39293 7.497 -0.878947 2.97171 8.30262 
-0.575904 1.28938 5.76904 -0.626817 1.27303 7.3717 -0.771668 1.51141 8.97731 
-0.660194 2.93959 5.01818 -0.810585 4.36328 5.76128 -0.899453 4.35414 4.19028 
9.91629 0.460526 5.01455 9.72696 5.77015 1.77482 9.75574 5.79355 8.0528 
9.79086 0.436946 8.09946 10.2231 0.39536 1.76755 9.58646 3.31148 9.11685 
9.78248 8.33483 9.14074 9.83586 8.52757 6.46762 9.54457 3.13996 0.412771 
9.67986 8.43847 3.40057 9.65508 8.47297 0.375844 9.30869 5.80424 5.02557 
9.67426 3.0148 3.41103 9.59485 3.00028 6.63292 9.75703 0.574228 9.26235 
9.84339 0.407651 6.59083 10.0619 0.475572 3.41004 9.73188 0.540975 0.419807 
9.74845 4.66423 8.79863 9.60081 6.02228 9.10688 9.91265 7.083 8.53097 
9.61108 7.23069 7.26356 9.74826 8.50106 7.96893 9.70144 4.65341 0.906539 
9.49706 6.00873 0.499539 9.63664 7.21247 2.57129 9.85828 7.21794 1.0134 
9.85945 8.53386 1.80943 9.62827 8.51005 4.99614 9.72818 7.14084 4.17932 
9.60313 5.79747 3.38968 9.68344 7.18706 5.79425 9.64722 5.71501 6.58508 
9.42486 4.36051 2.52802 9.86098 3.04773 1.80528 9.89108 1.41841 0.898426 
9.71419 1.31348 2.59281 9.55369 1.33744 4.18882 9.45133 4.39623 7.43888 
9.88798 3.01335 8.05268 9.62729 1.32298 5.78237 9.63256 1.31233 7.3786 
9.96466 1.36967 8.77798 9.34195 2.93025 5.01211 9.41537 4.38133 5.78677 
9.35522 4.39461 4.19426 4.21808 -0.673147 1.57713 4.1924 -0.929274 8.33186 
9.21728 -0.805891 5.00806 9.30742 -0.764096 8.12672 9.38378 -0.811159 1.78918 
6.76524 -0.630239 9.52802 1.47246 -0.326634 9.30501 1.34184 -0.523467 6.63868 
6.77801 -0.617795 0.536876 1.34092 -0.607921 3.34247 1.37986 -0.377122 0.3027 
4.19988 -0.893451 5.0156 6.95628 -0.925717 3.39719 7.09162 -0.611969 6.65158 
9.17351 -0.272705 9.49519 9.11063 -0.560395 6.5283 9.09824 -0.699718 3.40535 
9.0981 -0.247173 0.44924 5.52593 -0.726616 9.20067 4.00893 -0.639189 9.34705 
2.73942 -0.736166 9.03631 2.7607 -0.803198 7.42471 1.33022 -0.53831 8.25671 
5.44887 -0.725683 0.722478 4.00454 -0.610264 0.466332 2.79791 -0.828275 2.54571 
2.75664 -0.643933 0.915127 1.39362 -0.278562 1.752 1.30722 -0.568301 5.02876 
2.74909 -0.590546 4.20235 4.18632 -0.863271 3.33774 2.75748 -0.785103 5.7444 
4.22006 -0.602399 6.70357 5.65126 -0.877727 2.58089 7.02738 -0.74985 1.63113 
8.45991 -0.630637 0.784145 8.26483 -0.726703 2.70003 8.39039 -0.591858 4.11538 
5.61659 -0.954411 7.42462 6.95859 -0.877123 8.33828 8.57653 -0.672037 5.7583 
8.48429 -0.826133 7.36617 8.4234 -0.548242 9.15067 6.98994 -0.867746 4.9613 
5.61777 -0.763278 5.74505 5.6075 -0.514957 4.19425 4.23169 9.61755 1.72164 
4.14382 9.57846 8.13576 9.32803 9.75007 4.94315 9.29124 9.6516 7.98566 
9.2764 9.64181 1.84632 6.74689 9.62704 8.93357 1.35415 9.72528 9.0679 
1.30771 9.65029 6.59032 6.90388 9.66662 0.532305 1.34382 9.73161 3.40727 
1.32137 9.57329 0.397013 4.27971 9.50035 4.9908 7.06735 9.61319 3.37874 
7.06721 9.56162 6.60147 9.23087 9.52427 9.09878 9.27112 9.48518 6.56052 
9.2266 9.59326 3.49 9.18645 9.47161 0.449535 5.37839 9.79372 8.82319 
3.95163 9.99022 9.11262 2.72367 9.82782 8.72659 2.8107 9.89222 7.35887 
1.44819 9.9465 8.0615 5.46679 9.84928 0.861596 4.00532 9.39062 0.607435 
2.83258 9.67253 2.513 2.7253 9.69964 0.965423 1.37544 9.65049 1.80094 
1.31592 9.70537 5.0086 2.75879 9.45966 4.18219 4.17589 9.67447 3.43337 
2.78506 9.66827 5.7928 4.16983 9.55682 6.63846 5.61073 9.52138 2.57589 
6.9624 9.69674 1.78046 8.58049 10.0262 0.859943 8.67489 9.91881 2.65633 
8.66977 9.62569 4.21651 5.62881 9.78406 7.34945 6.943 9.91377 8.04944 
8.72044 9.70509 5.77 8.70814 9.85364 7.31822 8.68618 9.8686 8.7992 
6.99063 9.59752 4.97188 5.56581 9.50234 5.8244 5.63168 9.30251 4.12304 
1.70694 4.1948 -0.776552 8.31106 4.0851 -0.934109 5.0742 9.04893 -0.383297 
8.0925 9.25502 -0.625378 1.84899 9.135 -0.566868 9.16501 6.74253 -0.53844 
9.36041 1.4067 -0.672271 6.56514 1.2549 -0.703137 0.354593 6.84124 -0.741733 
3.41537 1.22983 -0.620502 0.200274 1.42999 -0.412684 4.98176 4.19885 -0.61642 
3.36897 7.13601 -0.98441 6.58587 7.05628 -0.843913 9.45163 9.11321 -0.5147 
6.66013 9.11813 -0.592364 3.39802 9.10069 -0.51991 0.361316 9.11371 -0.405217 
8.91001 5.48187 -0.897989 9.10322 3.98182 -0.644055 8.61533 2.72615 -0.70245 
7.37952 2.7883 -0.811118 8.15377 1.35702 -0.619325 0.766826 5.39367 -0.933391 
0.347124 3.99772 -0.678918 2.58686 2.73016 -0.805273 0.828214 2.68543 -0.829254 
1.76767 1.32665 -0.431782 5.06482 1.34692 -0.448419 4.19042 2.76843 -0.665986 
3.33979 4.1872 -0.902464 5.82535 2.73951 -0.884712 6.59131 4.24851 -0.873941 
2.54786 5.60442 -0.838471 1.70327 6.9848 -0.763722 0.870444 8.53593 -0.843668 
2.61078 8.70094 -0.932122 4.29865 8.61983 -0.742019 7.43992 5.59041 -0.719241 
8.26658 7.03073 -0.964704 5.7639 8.59038 -0.871605 7.28082 8.55155 -0.840074 
8.99394 8.49751 -0.844145 5.02342 7.00351 -0.686115 5.81516 5.60709 -0.963126 
4.18919 5.638 -0.590765 1.77136 4.16329 9.65059 8.07856 4.18977 9.69026 
5.19432 9.12576 9.7952 8.18216 9.13753 9.90508 1.98221 9.14091 9.97772 
9.21161 6.67026 10.0191 9.21723 1.49515 9.88469 6.54615 1.32915 9.61959 
0.515746 6.76107 9.69233 3.37332 1.35729 9.76419 0.459024 1.40034 9.78857 
5.01589 4.23857 9.63798 3.39444 7.01459 9.55187 6.6185 6.9625 9.54879 
9.22307 8.90089 9.65229 6.53006 9.17172 9.6463 3.44524 9.14667 9.70028 
0.461258 9.10909 9.80736 8.73328 5.29472 9.42638 9.12399 3.99225 9.93669 
8.48858 2.71191 9.75031 7.27111 2.75605 9.82713 7.98305 1.32795 9.96609 
0.831135 5.33407 9.65618 0.459815 4.00197 9.89179 2.5721 2.80079 9.94245 
1.04262 2.78855 9.69297 1.79838 1.33532 9.98181 5.03037 1.26349 9.82915 
4.21248 2.78228 9.5659 3.3606 4.22504 9.37224 5.78725 2.78546 9.61493 
6.58272 4.22325 9.42237 2.5291 5.65969 9.54585 1.76979 6.98064 9.91041 
0.977638 8.3978 9.91274 2.65588 8.40767 9.82952 4.32405 8.46584 9.73232 
7.42621 5.59518 9.78813 8.13219 6.94141 9.72197 5.85024 8.51656 9.77996 
7.38076 8.61647 9.96358 8.79279 8.46684 10.0571 4.98807 7.02869 9.73312 
5.79725 5.62494 9.30794 4.19132 5.57802 9.28912 
POLYGONS 709 2124
OFFSETS vtktypeint64
0 3 6 9 12 15 18 21 24 
27 30 33 36 39 42 45 48 51 
54 57 60 63 66 69 72 75 78 
81 84 87 90 93 96 99 102 105 
108 111 114 117 120 123 126 129 132 
135 138 141 144 147 150 153 156 159 
162 165 168 171 174 177 180 183 186 
189 192 195 198 201 204 207 210 213 
216 219 222 225 228 231 234 237 240 
243 246 249 252 255 258 261 264 267 
270 273 276 279 282 285 288 291 294 
297 300 303 306 309 312 315 318 321 
324 327 330 333 336 339 342 345 348 
351 354 357 360 363 366 369 372 375 
378 381 384 387 390 393 396 399 402 
405 408 411 414 417 420 423 426 429 
432 435 438 441 444 447 450 453 456 
459 462 465 468 471 474 477 480 483 
486 489 492 495 498 501 504 507 510 
513 516 519 522 525 528 531 534 537 
540 543 546 549 552 555 558 561 564 
567 570 573 576 579 582 585 588 591 
594 597 600 603 606 609 612 615 618 
[...]
CELL_DATA 708
SCALARS scalars double
LOOKUP_TABLE default
-4.6298165466 -9.0578835981 -3.2095575053 -9.4466017383 -3.9663014267 -7.4083067657 -9.1051293689 -3.773483053 -4.1162567134 
-3.4584361195 -7.0101812217 -4.6559737426 -7.4778289671 -1.394024284 1.9259841772 1.9723050593 1.0755804289 -0.25467035226 
0.084937695047 -3.1234631515 0.84889661408 3.290235861 1.6454065025 2.1869948206 4.7455369074 4.1526643307 5.1929039972 
5.8410928033 5.0788154068 3.4593647588 -1.2425986611 2.4818548821 -1.2901631083 -0.18483667852 1.4869240683 0.06883827266 
-0.56218653309 0.29244994622 -0.11679200652 1.3155245038 1.6327255454 2.8280993872 2.1607151362 5.5156006177 4.3556659625 
5.0753857261 4.5562680125 4.9116857965 2.0677539312 -0.082162817539 -0.035598899979 -0.30234809644 4.5520234792 2.6832367477 
3.9675406782 4.8429564259 1.3939180253 4.1979355169 2.7352686234 1.2282841755 -0.30287878436 0.75492297036 1.6436849826 
-0.32606517707 1.1443198114 0.88946337059 -1.44719653 2.7079192526 2.4730490233 3.7346647249 -1.9529593715 -0.44735040725 
1.4397303572 1.8143573657 -2.4589919769 -4.0796377355 -4.521436797 -0.30162134112 -3.0426289471 -3.7615662869 -3.7175910061 
-3.5533411002 -1.4237690774 -0.69466882383 1.4397824884 -0.78525868518 -0.49154858047 0.25719990005 -1.5497773209 -0.19985873854 
-2.5424643086 -3.1900587644 -3.1703043128 2.1426541883 0.087938301193 -3.8130476707 0.31782617273 -0.30165145951 0.80499069762 
0.44308712961 -1.9792443798 -1.0684313748 -1.5030414787 -1.5182016222 0.14478077624 0.022122796736 1.1720297203 -0.35202907154 
0.18693874225 -0.6540291407 0.096645092414 0.91202517004 -1.7006600476 -0.65754097733 1.5142665688 -1.1432230457 0.15508058698 
-1.3412725003 -2.2550929723 -4.4043379883 -1.4075169863 -6.1166118049 -1.1374112791 -5.8545303539 -4.5635487228 -0.3671339417 
-6.6547233553 -0.60252465007 -8.0053126532 -2.0468483811 -4.9068549942 -0.83160474109 0.78355723039 0.34496135839 0.63057243169 
0.031325773231 -0.99434220898 -1.2472199232 -0.31151019223 1.098913605 -1.3748726179 0.22056234138 2.0697935727 1.3467184753 
1.2020221786 2.3165009912 1.4843472976 -0.27653370977 -1.8504478174 -0.36578701547 -1.2370322854 0.16116743929 1.6768863397 
1.0059976481 -0.55828495658 -1.0945773196 1.6202606256 -0.15747280152 -1.0604880042 0.8635048182 -0.85593948346 0.14163110536 
2.1906673332 2.1456166361 2.8899139386 1.2710291222 0.87269186653 -1.9706136725 -2.0301573699 -0.25308539021 2.1644896535 
0.96291979008 1.8584891041 2.3977521865 0.031530967842 -0.30778217556 -0.13080800792 0.2040746684 -1.9252041364 -0.57903048349 
-1.3897830651 -1.4072480742 0.58069295954 0.01819753474 -2.7927691548 -0.42639921468 0.5504996637 0.57306868153 -1.3368971181 
-0.28151815604 2.5458028957 2.0751561939 -1.9402000919 -0.28920771393 -2.6203505423 -0.24938270378 0.71344971243 -1.1431729406 
0.22931081109 4.497321997 3.9691287968 -0.31907134959 1.3532693461 -0.38085411612 -1.2989295439 2.1346147858 -0.47696720089 
1.9118669039 0.20940124901 -1.1018933769 -1.413049393 2.2835864557 1.3670715349 -2.2611185258 -0.13732564602 0.058702830555 
0.94779443191 1.4694358977 -0.67029349199 -0.55440436703 3.4935716854 0.98913282823 0.24440754601 1.5405904523 1.1517884107 
-1.8613110808 -0.41427813629 -1.5957697289 2.0531624113 -0.71966761203 -1.6878757815 -1.4913830941 0.54892957413 1.0706262004 
0.33048519668 -0.30261495982 -7.2490603653 -4.4294402941 -7.7431427303 -5.9556061829 -7.4240516901 -3.755331395 -3.0247852831 
-8.0523400677 -6.0196174177 -7.4720707864 -2.4252687961 -8.7843356685 -7.8306651722 -7.3580833345 -7.6604834975 -9.6249217816 
-7.6856139772 -5.1465707421 -6.6702170435 -7.9363985155 -7.1477625069 -9.9283669383 -9.401504764 -9.8213530031 -9.8634755202 
-9.4081463268 -9.1486146817 -8.9575007925 -9.085555865 -8.0488416881 -9.6121511629 -8.7367448856 -9.0190019174 -8.0420296754 
-8.9894053183 -9.2578192511 -9.9649033566 -8.7356999532 -8.7519592339 -8.728799368 -9.9309238896 -9.4524185223 -9.7333476091 
-9.4433000141 -9.3713130422 -9.8559979416 -7.3024973107 -7.2147372843 -9.8833571546 -9.3944358264 -9.5604382565 -9.9831460404 
-9.5400589941 -8.7396478254 -7.7481287232 -9.1912026002 -9.3595044579 -9.8751686282 -9.438720854 -9.2698386323 -9.9365137927 
-9.8052817106 -9.8494719962 -9.8212208461 -9.8541319201 -9.7985784623 -9.9132202535 -9.8299076156 -9.8618860611 -9.9972306223 
-9.8847761092 -9.932181238 -9.8913954434 -9.9487100184 -9.9579599468 -7.5082739088 -6.4941502858 -9.7888102493 -7.7530812448 
-8.1716021633 -7.9593236357 -9.9370897095 -9.901207352 -9.9045634446 -9.9245922534 -9.9740255133 -9.893176041 -9.7804555231 
-9.7821210028 -9.9165475759 -9.8982665552 -8.3526174283 -6.7323380863 -9.4965902937 -7.835011531 -9.3062526126 -9.8630579949 
-2.9342864123 -7.4645424704 -9.7120558584 -9.8464878644 -9.786547397 -9.7327906983 -9.8801822747 -9.7685257654 -9.8580101228 
-9.7930662019 -9.6993523375 -9.8545929969 -9.7575084253 -9.6274544032 -9.6830119391 -9.9194168778 -9.6968356679 -9.7286560178 
-9.6236372419 -9.8878317043 -9.744335785 9.0630841298 8.2918744896 9.2922758315 9.7192572699 8.5984123279 5.6842779871 
9.2294824623 9.3606002111 8.4645446678 8.5417043348 7.9212666573 7.9309608793 7.5035386563 7.2609033204 9.5308591915 
9.2381938476 6.0699685925 9.9105680165 9.3182947242 5.3948155037 8.7588222079 9.7880623337 9.7687695845 9.7966336921 
9.9650444656 9.7598518295 9.5943262005 8.8377587292 9.5387670859 7.7131684707 9.2149919133 9.6262604999 9.476100497 
7.719004341 9.871219424 9.6842984373 9.5159147406 9.5071183622 9.5154876407 9.5308826242 9.9877977187 9.9869214424 
9.9628402505 9.9951513899 9.7663969029 9.9648916995 9.8891419135 9.9004762775 9.9396300916 9.8408365641 9.9650220974 
9.5886202649 9.737302628 9.8137529725 9.8686267769 9.8491068333 9.9142715695 9.8441771637 9.7282834509 9.7794090448 
9.9925241326 9.8925004391 9.8882143164 9.8634290898 9.9490578202 9.7204339674 9.7590804693 9.9075012082 9.9937100511 
9.837455082 9.8712970914 9.8015656591 9.9240993557 9.9380536898 9.8181818837 8.2724058326 8.5213199956 9.7759163162 
7.9288563928 8.5859030273 8.6669946092 9.4134550057 8.9215803815 9.8525691473 9.782290918 9.8447125602 9.8752967663 
9.7183880303 9.4157192137 9.959840729 9.8638504381 9.0291817895 9.5864735958 8.8031640332 9.8538455425 8.7458658569 
9.4323344976 8.1862283312 8.7284695274 9.5279565368 9.6816325064 9.9950177221 9.8962543612 9.9695419338 9.9987770029 
9.9799624364 9.8138516992 9.8916160679 9.9926159345 9.8170974445 9.8023087449 9.7436257205 9.9564746423 9.7345633416 
9.90908607 9.7731425721 9.9834444536 9.8304544469 6.3005415752 9.3130608973 3.5065173313 4.8409681194 5.711885363 
0.88856088687 7.7441577251 3.4897653561 3.5310251608 5.6714770616 3.7646881288 3.9846512184 4.9000752319 7.2834104861 
0.84667317402 -1.1643980738 -0.64840363925 0.35462871506 0.96708299963 0.71844943533 -0.164404998 -1.5028263278 -0.46476957099 
-1.0121690527 -0.88198572262 -2.5178092355 -3.3797434708 -4.6323081404 -4.2693947074 -1.1201950235 -0.8559980982 0.78967514015 
-0.20046004396 -0.91480426402 -0.12331027161 0.81879182917 -1.6552450334 -0.20974479905 0.60534157432 -0.457152489 0.27370380249 
-1.8774623717 -3.0057321997 -2.6796851903 -3.4713761955 -2.2574787867 -4.5811562236 -4.7534392758 -2.3699792463 -3.1691177827 
-1.5325930493 0.83203387169 -0.06571660887 0.21092344773 -2.6041038999 -2.7790674433 -3.2572475848 -0.73718652317 -2.3886440256 
-2.041906271 -0.26703670945 -0.60930808588 -1.1182768204 -0.96611227736 0.8824480432 -0.65062280203 -0.17149121658 1.0608476491 
-2.054677632 -0.84345217068 -2.2941511996 -0.81041797474 1.2300280549 -0.25274944284 0.80561958853 1.9755197147 3.2609957766 
0.89110595009 1.5687664698 5.5394925891 3.1313650915 5.9035628656 5.3962503018 -0.29222896029 -0.56939554381 -0.74730041417 
0.7489101173 -1.2668051448 1.5502455243 -0.95319589311 -0.070083016748 5.7142222361 3.5134207624 4.2757082228 -0.78127868263 
5.9709533365 2.8481032865 1.5839865129 -2.1487068944 -1.2036002007 0.3560389692 0.81812148997 6.9202288808 -0.70363630072 
0.47136598222 -0.74411218234 0.023928862401 1.2851337738 -1.5076073027 0.19998017694 -1.7339250538 1.109677797 0.020634843172 
1.2563402746 -1.0602828638 -1.6687751393 1.3640552889 0.67393488078 2.7403855634 1.6067090513 2.5315463176 1.4145302884 
2.5831688471 7.1842710223 3.8155045228 2.4140696381 5.2591048181 2.4485368069 8.0190209012 3.1402697898 4.4918678066 
9.263058746 -2.5591941703 3.1806791719 4.4178575933 -0.04554938301 -2.9047828898 1.4606671489 -3.4011435066 0.58506623621 
1.3722602274 -0.22276196718 1.2972671643 -0.24231555259 -1.1070537122 -1.8124049339 -0.98691188542 -1.1912052731 -0.25402046985 
1.0975316687 -1.3246203347 -0.14125957967 0.15765932523 -0.98043244967 1.2723004571 -0.26710071238 -2.5755008514 2.8199889307 
1.1546125556 -0.45947499205 1.2475080915 1.1126317863 0.20085933914 -1.5940216501 -0.67465995919 -1.3896651305 -1.7381190783 
-0.1705691568 0.79910473026 -0.69846973569 -1.5180954656 1.3148649079 -1.5333982299 -0.2282763387 0.84887605407 0.038472784773 
-0.10931986968 -0.47407660928 2.9262482376 0.38722195629 2.5572328714 -0.71146251069 0.56850174916 1.8759802673 2.0433014741 
-0.32323161511 0.7272592507 1.5503374864 1.5443606438 0.40980869817 -0.60479349423 -1.4233548961 -2.0901355411 2.8962291776 
4.2723014259 -1.6281699812 -2.2734979201 2.697230138 2.9709411787 1.1603415464 -1.5366446621 -0.79213925094 -0.88587794597 
0.25944128598 0.63089003118 1.0704735684 -2.7914461211 -0.8268527328 -1.9650735032 2.6913597671 2.5498702507 3.2936338313 
1.5886984441 1.7615377049 1.8091398827 4.6692848784 5.0756205862 -0.86548025739 -1.9182670373 -1.7903862623 -0.56480778031 
-0.93789013219 -0.51382692719 -0.13648602945 0.0087468124379 -1.5013926147 1.561656965 -0.80667950263 -0.98369021675 1.5678011561 
-0.18779129861 -0.32033980449 2.4136652641 -2.3638206011 -2.3533422333 -2.9130745761 
