# vtk DataFile Version 5.1
vtk output
ASCII
DATASET POLYDATA
POINTS 356 float
0.524891 0.599427 0.249574 0.635409 0.689005 8.93817 0.674865 8.56409 0.225464 
0.770487 8.38401 8.63166 8.869 0.709695 0.235959 8.46036 1.03218 8.59062 
8.64165 8.25957 0.475575 8.59564 8.30916 8.69738 -0.0626807 0.178785 1.21507 
-0.369269 -0.107281 2.5002 -0.576265 -0.296131 4.13374 -0.462724 -0.175626 5.68681 
-0.353004 0.0761816 7.0889 0.117336 0.328391 8.039 -0.135122 1.22222 0.0012158 
0.0955198 2.46025 -0.304664 -0.233038 3.98066 -0.440885 -0.267032 5.71536 -0.307032 
-0.101458 7.04004 0.0350031 0.412288 8.05009 -0.129321 0.456324 8.78348 1.33131 
0.147021 8.68068 2.6599 -0.119153 8.93507 4.13037 -0.0956385 8.96519 5.66982 
0.291207 8.6704 6.80752 0.446142 8.66841 7.94752 0.244907 1.45562 8.76578 
0.129992 2.49856 9.28625 -0.106296 3.97737 9.05513 -0.130372 5.66111 9.28725 
0.0264892 7.06505 8.97146 0.559372 7.94171 9.11678 9.25754 0.170528 0.981775 
9.40907 -0.132623 2.4108 9.62232 -0.351687 4.01781 9.6122 -0.340011 5.68056 
9.50074 -0.0957632 7.21906 9.00041 0.500818 8.12731 9.06918 1.43124 0.268913 
9.04873 2.55643 -0.331902 9.25673 4.10823 -0.237934 9.14023 5.72442 -0.145357 
9.27876 7.01466 0.0409208 8.7048 7.82113 0.23812 8.75507 8.56721 1.31202 
8.89696 8.79771 2.5854 8.93769 8.80955 4.13342 8.95905 8.90133 5.56148 
8.86456 8.8131 6.86941 8.83903 8.59842 7.97769 8.91053 1.40097 8.77575 
8.87251 2.51212 9.13856 8.93947 4.01594 8.93341 9.00408 5.61985 9.11921 
9.07609 6.90929 8.95263 8.7098 7.76645 8.87843 1.39309 0.497347 -0.263173 
2.63403 0.0654049 -0.13976 4.34929 0.014297 -0.497639 5.82024 0.0862302 -0.508971 
7.07805 0.192713 -0.262722 8.11399 0.442694 -0.0922997 1.53491 0.710897 9.03665 
2.60419 0.0581977 9.26497 4.31387 0.0486248 9.39478 5.94681 0.235746 9.21111 
7.04287 0.393022 9.11102 8.10119 0.570908 8.97695 1.38101 8.74011 -0.269889 
2.49483 9.19561 -0.398921 4.3257 9.27493 -0.621807 5.88365 9.10796 -0.535141 
7.18423 8.96689 -0.486518 8.10011 8.61909 0.0544853 1.51723 8.37717 9.03933 
2.58187 8.91333 9.0664 4.37479 9.05378 9.24814 5.91874 8.93957 9.34029 
7.13583 8.6746 9.237 8.13547 8.52799 9.07582 -1.05763 0.324036 4.95464 
-1.38513 6.0106 1.74853 -1.42697 6.0371 7.65516 -0.619638 0.699142 7.77338 
-0.650942 0.71978 1.81725 -0.689893 3.15655 8.60473 0.133452 7.81266 8.3505 
-0.841969 8.08725 6.32504 -0.968161 3.19662 0.325453 -0.665369 8.1533 3.44859 
0.0323541 7.80434 0.7682 -1.8855 5.99455 4.89947 -1.83818 2.9697 3.17603 
-1.68936 2.93642 6.3981 -0.0478393 0.781645 8.79356 -1.1498 0.239051 6.45993 
-0.953982 0.365359 3.31561 -0.0121455 0.874244 0.616164 -1.14478 4.71085 8.43284 
-0.626461 6.11033 8.51999 -0.833151 7.10433 8.02827 -1.06671 7.06646 6.89217 
-0.472675 8.03282 7.49072 -1.21922 4.78336 0.696285 -1.03279 6.15391 0.548274 
-1.26965 7.22343 2.58242 -0.791404 7.05271 1.18835 -0.528024 7.94728 1.97354 
-0.81723 8.05921 4.86507 -1.52164 7.12003 4.09792 -1.79561 5.91934 3.23663 
-1.36541 7.16917 5.65194 -1.77025 5.95884 6.36432 -1.9062 4.50839 2.50231 
-1.23206 3.10872 1.72251 -0.813436 1.40407 0.886131 -1.48064 1.16088 2.48474 
-1.51629 0.897067 4.13129 -1.64695 4.5339 7.01911 -1.52431 3.11402 7.7008 
-1.4191 0.94778 5.65923 -1.14823 1.15378 7.05162 -0.71082 1.41664 8.42062 
-2.07553 2.88829 4.94757 -2.0153 4.50303 5.64576 -1.94605 4.45906 4.1525 
9.66377 0.483774 4.89595 10.077 5.85755 1.74159 9.86784 5.8801 7.58586 
9.24933 0.92202 7.67658 9.65543 0.803488 1.79289 9.67973 3.14504 8.58655 
8.91147 7.73255 8.28013 9.63791 8.03376 6.27803 9.43117 3.20301 0.637786 
9.51977 7.93813 3.32902 9.21533 7.84699 0.795439 9.99507 5.71665 4.83739 
10.0557 3.06415 3.33611 10.1547 2.8175 6.30684 9.09531 1.10478 8.66181 
9.43952 0.672578 6.32362 9.56438 0.589296 3.26478 8.95807 1.10791 0.753834 
9.79419 4.58126 8.30227 9.33936 5.97984 8.27811 9.54985 6.96944 8.033 
9.65611 6.93747 6.83479 9.42102 7.90579 7.53009 9.87125 4.64013 0.926798 
9.44291 6.01899 0.785313 9.71523 6.92 2.6797 9.55439 6.95224 1.30379 
9.48621 7.89835 1.88602 9.50335 7.94542 4.82604 9.90141 6.94846 4.10654 
10.0306 5.77098 3.30775 9.82059 6.88903 5.53169 10.1057 5.77064 6.31069 
10.0605 4.46456 2.59656 9.91076 2.95123 1.73862 9.71175 1.5254 1.03644 
9.78353 1.37898 2.63273 9.93937 1.13964 4.07604 10.0795 4.46176 6.9268 
9.81277 3.02569 7.52953 10.0684 1.2337 5.57312 9.88576 1.31296 7.03019 
9.47637 1.57145 8.17784 9.99261 3.02008 4.74383 10.1433 4.37534 5.50599 
10.3391 4.42355 4.05821 3.93163 -1.24523 1.57222 3.9552 -1.44128 7.75812 
8.78568 -0.738237 4.86004 8.64121 -0.304594 7.89233 8.52879 -0.222552 1.71984 
6.65076 -0.515703 8.64332 1.37903 -0.0202728 8.56333 1.18353 -0.984401 6.45532 
6.66028 -0.579589 0.429426 1.18153 -1.09628 3.31172 1.42555 -0.0464797 0.64068 
3.9613 -2.01217 4.99363 6.66284 -1.54847 3.277 6.70961 -1.49076 6.44514 
8.45451 0.324294 8.75375 8.84682 -0.690223 6.45073 8.80839 -0.741651 3.24997 
8.38866 0.344144 0.610215 5.26977 -0.906533 8.51679 3.84873 -0.618893 8.50574 
2.64945 -0.755269 8.05927 2.59671 -1.3384 7.08938 1.35622 -0.630238 7.60191 
5.34375 -1.01081 0.589868 3.88279 -0.724911 0.522837 2.57561 -1.3726 2.44574 
2.61422 -0.903751 1.04768 1.29125 -0.622238 1.73539 1.112 -1.13351 4.86487 
2.60177 -1.4469 4.14929 3.93319 -1.84628 3.27302 2.49198 -1.64586 5.70627 
4.00257 -1.54068 6.49989 5.33991 -1.56894 2.46087 6.63173 -1.09816 1.6392 
8.05407 -0.572034 0.788555 8.24975 -1.12523 2.36724 8.37243 -1.37227 4.0199 
5.4387 -1.63009 7.16768 6.64047 -1.0492 7.73265 8.32538 -1.24434 5.71935 
8.17986 -0.951999 7.20042 7.92244 -0.213188 8.34278 6.74509 -1.71732 4.9423 
5.41581 -1.87546 5.74572 5.3957 -1.80994 4.10605 3.80965 10.0088 1.83457 
3.83791 9.95724 7.56868 8.66477 9.53927 4.77162 8.51842 9.14911 7.73206 
8.58797 9.30459 1.77784 6.61826 9.25333 8.50252 1.39294 8.85375 8.30856 
1.16187 9.48889 6.26279 6.67865 9.28828 0.641064 0.928176 9.55831 3.40007 
1.39371 8.90413 0.809273 3.90804 10.0452 4.83707 6.74528 10.0483 3.2773 
6.83198 9.98226 6.33645 8.28214 8.60688 8.36306 8.5886 9.33767 6.29108 
8.64854 9.35286 3.39336 8.48835 8.80056 0.650946 5.30615 9.64925 8.42538 
3.72692 9.45163 8.41945 2.50892 9.54502 8.11435 2.52902 9.60014 6.77359 
1.20288 9.45277 7.50339 5.2378 9.77284 0.825815 3.70767 9.58766 0.604561 
2.43875 9.7137 2.71129 2.43561 9.71747 1.17591 1.26054 9.46405 1.90949 
1.07554 9.33842 4.83404 2.3425 10.1433 4.12185 3.84387 10.2175 3.32938 
2.39695 9.99084 5.62803 3.91136 10.1486 6.34589 5.33321 9.87687 2.59086 
6.65631 9.87969 1.81119 7.89527 9.33492 1.00861 7.96274 9.41372 2.60781 
7.97676 9.57547 4.04547 5.3765 9.88246 6.91826 6.76102 9.8172 7.55812 
8.03127 9.69355 5.61777 8.00414 9.43863 6.88118 7.86512 9.22563 8.2384 
6.83221 9.8626 4.85329 5.42954 10.351 5.59787 5.40886 10.2969 4.03914 
1.74531 3.85395 -1.58614 7.73722 3.7743 -1.62512 5.07456 8.53863 -0.934987 
7.82988 8.38334 -0.597995 1.91306 8.30683 -0.629339 8.45352 6.45062 -0.688051 
8.49548 1.51522 -0.221651 6.51173 1.19213 -1.16149 0.474248 6.58902 -1.02687 
3.45785 1.12517 -1.23326 0.910868 1.49023 -0.452493 4.90216 3.91774 -2.1577 
3.26116 6.71402 -1.84271 6.49967 6.69793 -1.71333 8.6405 8.25769 -0.114308 
6.54026 8.45448 -0.858967 3.43837 8.51024 -0.848668 1.08275 8.02808 -0.068292 
8.47569 5.07535 -1.30279 8.44502 3.65127 -0.801649 8.19594 2.48166 -1.07314 
6.99761 2.48519 -1.50413 7.65101 1.24213 -0.964332 0.816963 5.17164 -1.2688 
0.515807 3.60325 -1.22558 2.61674 2.37898 -1.5718 1.28943 2.62098 -1.16365 
1.96214 1.27213 -0.837784 5.03134 1.03403 -1.3566 4.20642 2.46093 -1.70356 
3.25375 3.86835 -2.11067 5.67905 2.44936 -1.96697 6.48274 3.89156 -1.98577 
2.51772 5.2815 -2.04485 1.78152 6.55963 -1.4732 1.08147 7.87651 -0.824047 
2.6057 8.03671 -1.41469 4.25026 8.14544 -1.5759 7.00042 5.33879 -1.63651 
7.77802 6.65812 -1.44172 5.87361 8.12316 -1.52242 7.2289 7.96732 -1.15941 
8.32448 7.75252 -0.520712 4.93652 6.69308 -1.87041 5.72261 5.3662 -2.06338 
4.14567 5.38505 -2.11977 1.95659 4.00327 10.1843 7.44531 3.87046 9.82565 
5.05685 8.45064 9.62051 7.6061 8.17391 9.38493 1.98299 8.23386 9.44266 
8.26584 6.41873 9.33811 8.30969 1.57833 9.26848 6.38364 1.29091 9.89399 
0.719843 6.4894 9.5106 3.52033 1.30669 9.59234 1.01971 1.51608 9.41033 
4.98926 3.90232 10.4607 3.34069 6.61614 10.0294 6.44334 6.60979 10.1559 
8.25938 7.95892 8.84462 6.4466 8.28608 9.50934 3.5157 8.40388 9.47189 
1.01061 8.12206 9.07544 8.2996 5.09818 9.85255 8.46457 3.58279 9.82141 
7.92121 2.6372 9.71023 6.94301 2.61069 10.0867 7.45904 1.34268 9.39827 
0.947502 5.08989 9.65244 0.691336 3.67799 9.78139 2.70572 2.51551 10.1268 
1.44292 2.71358 9.63457 2.01085 1.33296 9.79213 5.00286 1.11917 9.85357 
4.16329 2.47664 10.2736 3.42119 3.90178 10.1134 5.65624 2.46516 9.95128 
6.26377 3.93496 10.3859 2.68022 5.218 10.3715 1.91907 6.5985 9.96679 
1.32326 7.67231 9.44904 2.71195 7.88868 9.87654 4.23491 7.90076 10.0176 
7.03062 5.24326 10.2379 7.6367 6.60731 9.86365 5.82551 7.93754 10.0143 
7.09723 7.82126 9.76779 8.20268 7.72783 9.44328 4.99013 6.62782 10.2268 
5.63514 5.37061 10.2211 4.12754 5.34113 10.3603 
POLYGONS 709 2124
OFFSETS vtktypeint64
0 3 6 9 12 15 18 21 24 
27 30 33 36 39 42 45 48 51 
54 57 60 63 66 69 72 75 78 
81 84 87 90 93 96 99 102 105 
108 111 114 117 120 123 126 129 132 
135 138 141 144 147 150 153 156 159 
162 165 168 171 174 177 180 183 186 
189 192 195 198 201 204 207 210 213 
216 219 222 225 228 231 234 237 240 
243 246 249 252 255 258 261 264 267 
270 273 276 279 282 285 288 291 294 
297 300 303 306 309 312 315 318 321 
324 327 330 333 336 339 342 345 348 
351 354 357 360 363 366 369 372 375 
378 381 384 387 390 393 396 399 402 
405 408 411 414 417 420 423 426 429 
432 435 438 441 444 447 450 453 456 
459 462 465 468 471 474 477 480 483 
486 489 492 495 498 501 504 507 510 
513 516 519 522 525 528 531 534 537 
540 543 546 549 552 555 558 561 564 
567 570 573 576 579 582 585 588 591 
594 597 600 603 606 609 612 615 618 
621 624 627 630 633 636 639 642 645 
648 651 654 657 660 663 666 669 672 
675 678 681 684 687 690 693 696 699 
[...]
CELL_DATA 708
SCALARS scalars double
LOOKUP_TABLE default
-6.0710613146 -8.5722207558 -4.2874066857 -9.2073273823 -6.3547443364 -6.9339644019 -7.2107225887 -6.1321446595 -6.3796376122 
-5.9411583547 -5.2362021747 -5.1691523596 -4.6885215909 -4.5290186293 2.2765341449 2.3769186007 0.20921469798 -0.68094152633 
2.2324210957 -1.2009736128 4.3397841826 5.6218210928 3.5975717739 4.3929213781 6.4829916095 8.3318844831 8.00047306 
5.0015636103 5.0628030575 4.3331035158 1.7510322017 5.5996516434 1.7942097787 -1.9875064162 -2.815336232 1.0122517294 
0.39443657009 0.37126203315 0.27497889299 3.1946164404 6.3796132482 5.6498815083 5.233324339 6.8892167412 5.4937196031 
5.0667781027 7.2400564956 7.4686149183 5.4332522432 3.9342739868 5.1369050697 2.6546447365 5.4908570045 4.0364781711 
6.3645714358 7.4709892782 6.008837881 5.9875403023 6.2314360759 2.5580802883 2.6542568306 3.1155352976 3.371158599 
3.5916837152 4.5416786701 4.3405669974 3.590489126 5.0856945928 6.2149766854 5.642830791 1.5720520998 -1.096608966 
-2.1177301573 -2.2357176583 -0.02333954273 -7.4729923184 -5.547198365 -1.7547375799 -7.4494432003 -6.5227215679 -6.1882034168 
-6.3069841311 -6.6131455189 -0.3403864353 -1.4397067709 -0.34942060417 -0.039379982245 -0.2377404731 -1.3737696836 0.74832276127 
-2.1002501754 -6.2120580652 -5.7494169279 -1.3300301342 -0.70107422682 -6.3860464046 -4.2073587172 1.2249462056 1.8586491099 
-0.62997326709 -2.3501620126 -2.8479151521 -5.5904795665 -2.2348877451 -2.1437914938 -2.9637181405 -0.7548022492 0.33541274908 
1.2649876853 0.35089742877 -0.55400636066 0.6694969473 2.0365746106 0.89178333421 0.62694210264 0.14830315244 -0.7601742866 
0.57926960225 -4.0803043367 -6.6197677916 -2.8910553053 1.3700292072 -2.8539334498 -0.56333960743 -0.0076553168232 -1.8662658248 
-0.49544608358 -2.4298102027 -3.5580915166 -0.95750279413 2.1546605907 -1.8591520036 2.6480617868 2.8220223705 0.93837079247 
1.2266912105 -0.042757421116 -1.1393506047 2.4934775335 4.0681797301 1.0784145843 1.7901993906 2.8895019884 6.1215313196 
5.8630533067 2.106259599 2.6780957063 3.9792567255 -0.18083763931 4.9695669282 -0.76842074402 -1.0874752782 0.58064739667 
2.0524404249 -1.9861770628 0.90675472597 2.4112941407 3.9675603473 2.0591193579 2.18780191 1.3966542314 5.7171528792 
6.3068179505 6.6621277081 6.4048331553 5.664776624 2.4886157328 1.895068844 0.017165216276 -0.60442229701 4.3045583913 
5.6386414831 5.5446119603 6.6236824797 2.6622615887 5.5130364425 5.2090575723 2.8682194794 0.91348429815 1.9535135641 
0.78377000489 1.931954887 2.9581970137 3.1510823057 1.1155525805 2.2211353771 3.6554244098 3.2782428367 -0.86015143073 
-1.8491578451 -0.49269349559 -0.32506632124 -3.0145487095 -2.6886103532 -3.0215182534 -1.0740304816 -7.4633971924 -2.4455872791 
-2.1122603181 -3.8186008391 -1.3691450602 -1.2595052349 0.61999278243 -1.1148626082 0.53903596487 -0.61187307771 -0.53045895728 
-0.92675075399 -1.137049393 -2.009758815 -1.1403199058 -6.5866686595 -2.6570815576 -3.9952642335 -5.5613986917 -3.8996820117 
1.6230228431 -1.6289177834 -0.39324105645 -0.61468533654 -4.3913460834 -0.060200498266 -0.43648732078 0.023463995412 0.29411724597 
0.6401511795 0.71367729423 0.01116002927 -1.0319035074 2.3943326503 0.065749583736 1.2167896382 1.7631994395 -2.2257821348 
-0.48922115764 -1.7931541918 -4.2689721261 1.491500894 -8.2574402565 -8.2027466016 -8.0807327253 -9.042941979 -4.6078952141 
-7.4675663386 -8.0719321988 -5.9576821506 -9.3452204684 -2.9384308929 -8.5680906052 -7.7762118581 -6.4331690539 -6.7584384373 
-7.4874938168 -5.0281866513 -5.5200962183 -7.8558327992 -5.7904186251 -8.0772868103 -8.1186855498 -8.729340285 -8.214800907 
-8.3567217981 -7.8085840444 -7.2894425397 -7.6326113392 -4.2450671683 -6.7381408957 -8.0610201952 -8.2570292959 -5.2969151136 
-7.1064333302 -7.0866063621 -8.8807310171 -7.3231900784 -7.1374735365 -7.7598438742 -9.4062453774 -8.8735510584 -7.8631229117 
-8.8592346193 -8.6809495999 -8.2617406753 -8.0147963932 -7.7844329584 -8.6844171472 -8.6851507943 -7.3106054549 -8.9553339104 
-7.6454602306 -7.657168899 -8.352789149 -8.7280822844 -8.4288875984 -9.7524019018 -9.0203885797 -8.72723888 -9.3549586401 
-9.3762482794 -9.5028759236 -9.1522905215 -9.4963131971 -9.9099631022 -9.7427933196 -9.4216660205 -9.1023689985 -9.747033191 
-9.5307133227 -9.5748925289 -8.9284562164 -9.4803024181 -9.4517635544 -6.3983839683 -8.5370662306 -9.7288899028 -3.8174093299 
-7.554463956 -7.4698964266 -6.8285597344 -4.5273964182 -9.5854256697 -9.1489935312 -9.2912551719 -8.743120243 -9.0233144791 
-8.4731554007 -8.5579431362 -9.4786840733 -7.9867595925 -7.739962766 -8.0390980696 -5.3790824143 -7.7462972376 -7.8497289835 
1.7322959404 -6.3436989667 -8.2223780447 -9.2894968449 -7.8797946701 -6.0607833807 -9.6498742345 -9.8320919399 -9.6504576116 
-9.6627826845 -9.9251445166 -9.517750361 -9.7534744988 -9.8331159894 -9.9207829752 -9.4283889421 -9.8306044962 -9.9257075038 
-9.852924313 -9.6687696429 -9.9476732127 5.8434963125 8.3651111193 7.3534508626 5.4499115248 7.0556899942 3.7919360075 
5.3991430823 7.5268055406 4.4075689986 7.9430358814 3.1380738363 7.4480550274 3.9081212585 3.3754011503 7.834680081 
8.6068666131 8.5996826723 8.3607422717 8.369201941 8.5601772995 7.9734038478 9.5851472935 7.1563566348 9.9515444415 
9.9526095172 7.4141121724 7.184959386 7.9749493976 7.0158405263 7.4082763669 8.6152062408 7.5818446947 8.2819828002 
7.7601019052 9.6774116549 9.6555897482 9.4558484886 9.0999829708 9.13263437 9.565535755 9.7797066372 9.8499580016 
7.7432396535 9.778835171 7.5077212833 8.1335948012 9.3394715909 9.3843954697 7.8875380891 7.3759087251 8.0161157917 
9.4621619351 9.4776502866 9.563954638 9.1170976475 9.3276801742 7.8104450913 9.2620382354 8.9530598255 9.4980534171 
9.5014650768 9.9352833305 9.3267692031 9.1990307911 9.951231255 9.3484544663 9.0589305917 9.948349566 9.1073082706 
8.7296416565 8.6510286461 9.9090150113 8.6897563766 9.9168181683 9.977445345 7.2825673016 5.0533087286 9.0446166458 
7.727588421 7.7671247791 6.5240269242 9.7056397083 9.9328927115 9.0664536416 8.8869127466 9.2771220164 9.8096685188 
9.910006047 8.2320837699 9.8813013721 9.2128920392 7.5799997268 8.0680383815 9.1585521548 8.2237241074 4.8339674009 
9.5305464917 8.0894703182 5.7532628555 8.426453102 9.2160796737 9.0898160585 9.8767476703 9.7892258756 9.4771790021 
9.7870304497 9.392275988 9.8028935019 9.8413050063 9.4116947694 9.5997773608 9.8771101126 9.7806238364 9.5630409934 
9.8284109979 9.6622687203 9.5356569821 9.4969202329 5.0427770943 8.3177187949 5.5915921133 5.1146533937 7.0090359365 
4.7338997656 6.9204772354 6.1753086278 4.1531622875 5.2452535533 4.0113548891 3.67888878 5.3255388672 0.097822637932 
5.9406453077 -2.4514223234 -2.6564669253 0.40755978553 2.7609396752 -0.28621428411 0.91177759921 -2.7149979708 -3.5507602641 
-3.1318904132 -2.2520280526 -6.0784987734 -6.3305091494 -2.6635208856 -3.2175196677 -3.794080003 -0.098481614673 -4.0114122234 
0.36211386582 -1.4037695594 2.4017398936 4.2323591317 0.28655214216 -0.36834189933 0.45791045801 1.1302698793 -1.9863646731 
-4.1587295624 -3.9445735012 -3.7555124754 -6.3757294 -3.5002223496 -5.4692352581 -3.908200924 -5.4125508205 -5.879401285 
-3.2055810281 -2.391020249 -4.3193419064 -2.1868098592 -1.60603622 -5.7639519834 -5.8863926008 -2.9961125365 -6.0245350752 
-6.5419921777 -1.9820144813 -2.8943482909 -3.1593794172 -3.5279961802 -0.7237221826 -2.3103692348 -1.9568069818 -2.1660720563 
-4.5292976568 -2.8481138682 -3.2406191308 -0.70126747882 0.83621574985 2.6572842816 1.5901369108 2.2737889718 5.6132323883 
2.5573877025 9.7923167382 6.6063917255 6.0694224304 8.3499372772 7.9778188159 1.8045897954 2.8642433848 2.4337167105 
1.0466403721 0.21525850872 2.7905667073 0.12627903382 2.4612224834 6.6578513625 5.3389566735 7.4048457939 1.6019171469 
5.7136632589 3.1327863858 1.4383166774 -2.1134500552 1.5659315424 2.8861283255 3.828009495 8.3460084207 1.7426269133 
1.9244221604 2.1451896618 0.63479474214 1.2731665523 0.034512636576 1.1384292273 1.6792775459 0.10968752394 -1.2549189328 
0.21851367693 0.44490569021 1.9527397175 1.9948758846 1.6537610274 4.2204251732 -2.031220339 5.2651270662 3.6444507576 
5.6060255368 5.145097698 4.5026804318 5.6001706587 4.6701010262 5.9518288489 6.7258366971 5.3393505899 7.6720943093 
7.2787536926 3.4829642656 -0.20729307368 0.83453222805 0.9775301774 3.1214641714 0.26684450109 -1.0552298083 0.50698554478 
-3.0354908987 -3.0000090526 -3.3483440845 -4.2056527488 -3.5485048871 -3.0087458057 -3.1385572372 -2.3649102224 -1.0265445463 
-1.764589954 -3.5358422462 -7.0378420632 2.4345378153 2.6973783097 1.4565438562 0.48245863565 -1.3165700773 1.8256787147 
-2.2815155009 -3.3399902524 -0.44597796481 -0.45876446596 -2.0086280968 -5.7935429064 -1.4652959874 -4.6379751365 -5.1480408528 
-3.3203818022 -0.95856254962 -3.0900173588 -2.9729024871 0.085165357979 -4.1821979294 -5.5578891185 -5.8144509011 -4.5852393485 
-2.7411075114 -4.7020998908 -0.1475566057 -0.028866109111 0.60393775839 -1.054844662 -3.0706698817 0.16088480155 -2.5505904813 
-2.4213335058 -0.61999161718 -4.0425599637 -1.702683747 0.89360975579 0.36285666105 2.5776194638 0.56936281442 0.75031828248 
5.3803908837 0.7353753817 5.6672295587 6.2001860678 5.5199678092 6.8370676652 3.926789032 0.97198052525 2.3271238981 
2.6091420846 -2.0371250052 1.5858327035 2.8629873489 1.2542550126 1.9717386118 4.9673782723 4.9921031146 6.7445432795 
-0.49622526205 1.5138249667 4.8735622106 3.2888932966 8.6523305764 -0.31353077925 1.7959958382 2.0337610351 5.9727882302 
1.288571381 0.91868525096 1.611712039 0.56940742423 -1.432875464 1.3740059511 1.1332388103 2.4355808956 -0.61254986481 
-1.7294738476 -1.7994552476 1.2221985616 1.805371446 0.20596583203 0.42223629285 
