# vtk DataFile Version 5.1
vtk output
ASCII
DATASET POLYDATA
POINTS 356 float
0.4939 0.609761 0.212507 0.642526 0.68134 8.84812 0.751267 8.49711 0.237848 
0.851163 8.3487 8.64248 8.88043 0.717773 0.20667 8.69761 0.932693 8.86257 
8.74341 8.40876 0.379258 8.44396 8.23215 8.54742 -0.130682 0.139495 1.1691 
-0.397673 -0.148811 2.45872 -0.697702 -0.391424 4.09161 -0.571083 -0.249249 5.6868 
-0.376867 0.0145 7.05612 0.099714 0.432354 7.90346 -0.16093 1.24955 -0.0216399 
0.0928441 2.52192 -0.39712 -0.239045 4.00999 -0.392053 -0.311396 5.65925 -0.3138 
-0.0793296 7.00143 0.0907446 0.612173 7.76131 -0.0643042 0.485763 8.5957 1.29393 
0.110451 8.80571 2.63065 -0.0749733 8.84035 4.16891 -0.112351 8.95164 5.56874 
0.12277 8.55004 6.82212 0.512463 8.68491 7.94939 0.213173 1.42844 8.82047 
0.0656061 2.54155 9.35323 -0.187485 3.95833 9.31744 -0.0579018 5.74801 9.05667 
0.0720272 6.93739 8.81557 0.55499 7.92008 9.05725 9.20466 0.239412 1.01742 
9.48699 -0.167849 2.40495 9.51051 -0.288932 4.00768 9.47522 -0.278329 5.6471 
9.34048 -0.00404833 7.08451 9.05722 0.334838 8.22058 9.15838 1.37562 0.181815 
8.91079 2.48112 -0.240262 9.04138 4.06489 -0.18554 9.26625 5.62862 -0.213697 
9.26274 6.93611 -0.0343405 8.6929 7.70436 0.301161 8.77683 8.5982 1.25527 
8.8619 8.82742 2.50663 8.99637 8.98931 4.13097 9.06448 8.98366 5.53158 
8.74135 8.72986 6.84544 8.69519 8.4768 7.94783 8.88172 1.5119 8.71554 
8.91679 2.61285 9.18783 8.92414 4.0243 9.05015 8.96301 5.51149 9.0413 
8.92969 6.78381 8.73524 8.70882 7.75201 8.91477 1.31147 0.350512 -0.436205 
2.58518 -0.0525856 -0.308634 4.31148 -0.0604888 -0.584587 5.88275 0.050678 -0.505853 
7.03943 0.253486 -0.318943 8.07704 0.372311 -0.17784 1.52365 0.728061 9.01872 
2.62619 0.0735579 9.26171 4.2643 0.214001 9.23685 5.85498 0.0861667 9.4068 
7.06686 0.358103 9.19628 7.96233 0.679603 8.89947 1.47908 8.42614 -0.189708 
2.56128 8.97578 -0.267481 4.24536 8.97686 -0.476995 5.85708 9.03191 -0.49832 
7.14164 8.75129 -0.392118 8.08091 8.62777 0.0196765 1.45915 8.53181 9.22585 
2.56805 8.91247 9.13827 4.34656 9.04007 9.30176 5.86473 8.85336 9.35978 
7.09994 8.64127 9.30764 7.98492 8.47595 8.98829 -1.09578 0.34484 4.87822 
-1.44957 5.98302 1.73418 -1.31554 5.92684 7.44656 -0.821641 0.617006 7.76124 
-0.787354 0.622123 1.75146 -0.684505 3.13944 8.49892 0.122524 7.76146 8.3027 
-0.791534 7.99725 6.25745 -1.05244 3.17056 0.313202 -0.832269 8.08282 3.32523 
-0.0913582 7.9428 0.647123 -1.95717 5.89247 4.87315 -1.99394 2.90335 3.19474 
-1.95776 2.95282 6.33808 -0.0225506 0.778284 8.7112 -1.15294 0.259674 6.39677 
-0.953032 0.436591 3.38892 -0.0128429 0.89497 0.582591 -1.00799 4.68559 8.43469 
-0.892647 6.11806 8.47114 -0.847766 6.99655 7.93407 -1.2587 7.06337 6.86238 
-0.400227 7.87452 7.41407 -1.1973 4.77029 0.72214 -1.07702 6.17567 0.476014 
-1.35004 7.11205 2.60682 -0.753399 7.01974 1.29733 -0.550367 7.99369 1.92553 
-0.857677 8.03353 4.85157 -1.42311 7.12006 4.17155 -1.8211 5.91435 3.25065 
-1.45591 7.09567 5.566 -1.75194 5.93089 6.32841 -1.91958 4.53429 2.51786 
-1.35293 3.13706 1.78178 -0.868734 1.36169 0.843404 -1.48401 1.12756 2.49056 
-1.60309 0.931703 4.12164 -1.61063 4.5327 6.95261 -1.52465 3.1145 7.6305 
-1.434 0.929002 5.67676 -1.06442 1.23876 6.91149 -0.697004 1.44965 8.39328 
-1.90026 2.98332 4.95003 -2.04467 4.53683 5.57698 -1.97483 4.44946 4.10226 
9.8099 0.430309 4.83143 9.99903 5.8094 1.85878 9.93381 5.85839 7.43762 
9.44685 0.878469 7.68937 9.33552 0.908314 1.84225 9.30127 3.16166 8.39268 
8.8634 7.67587 8.28063 9.5234 7.98293 6.17927 9.70778 3.19902 0.530402 
9.62257 8.03353 3.30162 8.92152 7.681 0.826748 9.991 5.63949 4.85081 
10.1679 2.93554 3.28962 10.0861 2.69753 6.17684 8.84517 1.152 8.37829 
9.64166 0.61225 6.29255 9.42897 0.675814 3.27836 8.85529 1.13104 0.77784 
9.65554 4.60808 8.34203 9.42531 5.90878 8.30395 9.55751 6.93552 7.98161 
9.59223 6.91269 6.79436 9.33852 7.89123 7.44396 9.83542 4.75736 0.840488 
9.42706 6.03046 0.812048 9.62984 6.86661 2.68513 9.7768 6.98109 1.30718 
9.38085 7.79703 1.92831 9.41194 7.88561 4.80447 10.0179 6.90374 4.07513 
10.1629 5.71997 3.29221 9.98598 6.90833 5.51107 10.155 5.79477 6.27707 
9.93521 4.3665 2.51065 9.82582 3.11656 1.82681 9.58953 1.56403 1.03515 
9.94549 1.33765 2.52147 10.04 1.17681 4.07974 9.86273 4.34131 6.8653 
9.80345 3.11252 7.45814 9.94126 1.19246 5.54675 9.72372 1.32618 6.93148 
9.50901 1.58524 8.17346 9.97408 2.99854 4.73664 10.2933 4.33078 5.56354 
10.336 4.40316 4.0131 3.87915 -1.32165 1.62094 3.95584 -1.34241 7.71152 
8.91286 -0.835526 4.8242 8.51553 -0.201648 7.68004 8.51836 -0.205361 1.75596 
6.49874 -0.389995 8.48532 1.3694 -0.0940592 8.54404 1.29045 -0.940702 6.3194 
6.55391 -0.671188 0.396963 1.06774 -1.12697 3.28969 1.38298 -0.174862 0.639675 
3.90583 -1.93638 4.92828 6.66306 -1.64039 3.2546 6.67104 -1.56149 6.43596 
8.21594 0.565256 8.39307 8.81177 -0.700352 6.41633 8.79014 -0.744431 3.21615 
8.42235 0.303108 0.492554 5.27207 -1.01276 8.47088 3.80423 -0.672618 8.63518 
2.68837 -0.672313 7.9917 2.58193 -1.37733 7.08601 1.29362 -0.784409 7.65331 
5.24225 -0.977808 0.571487 3.88941 -0.767394 0.50638 2.50238 -1.46302 2.40779 
2.66343 -0.968616 1.02368 1.32288 -0.68525 1.73454 1.04072 -1.34186 4.84118 
2.51296 -1.74057 4.1124 3.94839 -1.88413 3.22624 2.50835 -1.75731 5.6855 
3.96961 -1.80254 6.42547 5.31868 -1.70736 2.41223 6.66481 -1.13222 1.59718 
8.06383 -0.531459 0.813933 8.16486 -1.01164 2.36529 8.3151 -1.25495 4.01218 
5.37213 -1.63114 7.01182 6.72261 -1.13869 7.66647 8.31691 -1.26253 5.64851 
8.15848 -0.916997 7.10094 7.98004 -0.455909 8.48694 6.68271 -1.72436 4.92013 
5.37342 -1.8439 5.67835 5.34731 -1.93615 4.10372 3.82243 9.85549 1.87405 
3.80585 10.0258 7.41206 8.34181 9.04414 4.83404 8.43953 9.04077 7.56531 
8.33467 9.0027 1.95471 6.55023 9.14689 8.47855 1.45702 8.76884 8.30239 
1.08756 9.51682 6.27397 6.58193 9.32194 0.544581 1.00893 9.5061 3.29712 
1.35863 9.10754 0.694874 3.84416 10.1192 4.80633 6.73079 10.0326 3.24288 
6.74078 9.97171 6.30894 8.33931 8.6872 8.49029 8.44876 9.1785 6.18019 
8.41897 9.09475 3.19099 8.25922 8.58444 0.723584 5.21528 9.65005 8.30806 
3.7375 9.33042 8.34738 2.47701 9.54702 8.10609 2.424 9.64664 6.80222 
1.15237 9.40035 7.42281 5.1926 9.7357 0.806749 3.6838 9.7718 0.543637 
2.34538 9.94441 2.66842 2.48766 9.52492 1.21066 1.28104 9.19997 1.94772 
0.987765 9.442 4.80181 2.34394 9.93504 4.18276 3.76196 10.2507 3.30308 
2.34389 10.055 5.49289 3.87448 10.1197 6.34738 5.24731 10.0144 2.5331 
6.65591 9.87555 1.81632 7.88249 9.23629 0.983472 7.99598 9.58386 2.52613 
8.08766 9.74144 4.15282 5.41788 9.8668 6.88978 6.73435 9.74325 7.53698 
8.0418 9.77741 5.52486 7.93085 9.32536 6.85428 7.87614 9.16106 8.20714 
6.69377 9.78759 4.80399 5.34434 10.2376 5.49466 5.35904 10.3023 4.09568 
1.7223 3.81559 -1.72256 7.55074 3.71711 -1.45061 5.17469 8.82597 -1.30709 
7.76604 8.39316 -0.66771 1.9096 8.33297 -0.771264 8.33381 6.38645 -0.734309 
8.45945 1.4648 -0.357192 6.35946 1.14296 -1.23961 0.462149 6.52983 -1.06511 
3.5254 1.13107 -1.26089 0.84856 1.39125 -0.566778 4.8689 3.79501 -2.39201 
3.26731 6.63296 -2.02823 6.55076 6.7136 -1.99911 8.41932 8.08165 0.0580477 
6.49623 8.55898 -1.06 3.34623 8.69761 -1.18478 0.777369 8.31219 -0.384644 
8.41616 5.10255 -1.11027 8.50188 3.66652 -1.10255 8.11886 2.45885 -1.10644 
6.99518 2.38827 -1.65587 7.49076 1.28337 -0.828419 0.779912 5.13164 -1.2726 
0.577791 3.63502 -1.2017 2.6633 2.38181 -1.72113 1.27116 2.59208 -1.27363 
1.91692 1.27537 -0.990223 5.01243 1.14522 -1.32902 4.14158 2.37007 -1.99012 
3.37394 3.90898 -2.00926 5.69923 2.53337 -1.78131 6.45945 3.85789 -2.21653 
2.50769 5.21381 -2.09412 1.80424 6.495 -1.38427 1.23897 7.71853 -0.735882 
2.63045 7.81446 -1.22599 4.20834 7.99858 -1.5047 7.07084 5.26367 -1.92092 
7.53405 6.57103 -1.31029 5.79901 7.91651 -1.40279 7.19274 7.8629 -1.07228 
8.3039 7.81769 -0.601101 4.96876 6.66692 -2.11219 5.63798 5.28231 -2.00453 
4.08231 5.35089 -2.33668 2.02852 3.9732 10.13 7.38887 3.76675 10.0044 
5.02576 8.34793 9.63119 7.41937 7.93412 9.03228 1.9985 8.11205 9.35782 
8.48304 6.37875 9.49295 8.23941 1.58897 9.22599 6.2709 1.37717 9.60832 
0.71465 6.46696 9.6707 3.48885 1.25022 9.91166 0.977053 1.50091 9.48753 
4.9556 3.89049 10.511 3.30812 6.50502 10.0552 6.33565 6.54665 10.0024 
8.28058 7.95921 8.91038 6.46243 8.2626 9.59132 3.53036 8.39282 9.59031 
1.07123 8.05486 9.04001 8.21857 4.96137 9.64558 8.36992 3.59386 9.85734 
7.86534 2.65262 9.49051 6.90081 2.47796 10.0818 7.47077 1.34747 9.56469 
0.801554 5.09014 9.77968 0.928417 3.65344 9.59257 2.71023 2.52301 10.0408 
1.43899 2.64974 9.70007 2.06805 1.34925 9.57934 5.01228 1.10687 9.8515 
4.15271 2.51387 10.1135 3.50589 3.90248 10.1317 5.59401 2.48316 10.2564 
6.31057 3.84 10.1163 2.58335 5.09508 10.1916 1.9615 6.48805 9.83351 
1.31165 7.52942 9.39135 2.73036 7.77365 9.79881 4.21849 7.76642 9.91516 
6.98205 5.28707 10.1948 7.46632 6.55615 9.78628 5.77908 7.82831 9.94012 
7.03013 7.7486 9.7968 8.04292 7.62695 9.28724 4.95615 6.61691 10.2419 
5.6666 5.30374 10.3437 4.05587 5.27722 10.3611 
POLYGONS 709 2124
OFFSETS vtktypeint64
0 3 6 9 12 15 18 21 24 
27 30 33 36 39 42 45 48 51 
54 57 60 63 66 69 72 75 78 
81 84 87 90 93 96 99 102 105 
108 111 114 117 120 123 126 129 132 
135 138 141 144 147 150 153 156 159 
162 165 168 171 174 177 180 183 186 
189 192 195 198 201 204 207 210 213 
216 219 222 225 228 231 234 237 240 
243 246 249 252 255 258 261 264 267 
270 273 276 279 282 285 288 291 294 
297 300 303 306 309 312 315 318 321 
324 327 330 333 336 339 342 345 348 
351 354 357 360 363 366 369 372 375 
378 381 384 387 390 393 396 399 402 
405 408 411 414 417 420 423 426 429 
432 435 438 441 444 447 450 453 456 
459 462 465 468 471 474 477 480 483 
486 489 492 495 498 501 504 507 510 
513 516 519 522 525 528 531 534 537 
540 543 546 549 552 555 558 561 564 
567 570 573 576 579 582 585 588 591 
594 597 600 603 606 609 612 615 618 
621 624 627 630 633 636 639 642 645 
648 651 654 657 660 663 666 669 672 
675 678 681 684 687 690 693 696 699 
702 705 708 711 714 717 720 723 726 
[...]
CELL_DATA 708
SCALARS scalars double
LOOKUP_TABLE default
-5.6505182486 -9.103523298 -2.9657113728 -8.5430081266 -5.8798158427 -5.6486844328 -8.0795398279 -5.265166778 -4.5704434437 
-6.2012401907 -6.3013208009 -4.8711007411 -3.8343810378 -4.3908387557 0.65186901186 0.2467455416 -1.2540721915 -1.3769831849 
2.2428125227 1.550891477 2.3068491076 6.0409625105 5.8008178349 5.7487476336 6.9819005451 7.3090943436 6.88874365 
4.94901993 4.9127654572 3.144058009 2.4808993694 4.47627143 4.3661714007 -1.2506814364 -2.786443694 0.33255546388 
1.1188832213 -0.024016454576 -0.55505278164 3.8601324958 5.7084560779 3.8927234932 4.2690007216 7.5482741563 7.6661025693 
7.6062944271 7.42059804 7.1091601891 2.6875861366 4.9675401239 6.3241444322 3.2621078761 3.9841315334 4.0229016074 
6.0410026433 6.959605597 4.9479400942 7.0093505472 6.6215640057 2.5267808459 3.624806412 3.4433674834 5.1466090793 
3.1989851874 2.2768966801 3.3455082499 3.9177192447 5.6556830775 5.248223685 5.3199213855 1.0665365288 -0.37219236414 
-1.3687205853 -1.6435651607 -0.3138159564 -7.3480330654 -5.5020766134 -2.3812950457 -7.8281687639 -6.4672164217 -5.6287782882 
-7.0852336964 -5.2885366242 -0.90711014166 -1.5722370619 -0.65252744496 0.65021428039 0.89024300504 -1.201670454 1.1776960112 
-3.3960899838 -5.763426345 -4.9680789235 -0.73274922124 -0.34713989543 -6.5709016474 -0.41830271405 -0.86367161322 0.01882782163 
-0.38162055248 -3.4413054549 -3.2608129816 -5.8522856815 -2.3635485198 -1.6682665763 -1.8430419472 0.91988973428 0.68113093992 
1.3343105747 0.379742715 0.31796425882 0.56342562474 1.8803621671 0.87014618403 0.38684005407 -0.19454004256 -0.75285624407 
-0.75370931641 -3.0875632326 1.6954841139 -2.5572349283 -2.8068828853 -2.9081791464 -4.0584461016 -3.2596959964 -2.8051092179 
0.77640051045 -1.94683951 0.39832148247 -0.98154807987 3.1454145584 -3.1986557143 1.6568508465 1.5800883185 0.39973483533 
-1.6119766974 1.6159483477 -0.1408433448 3.200198607 4.595261363 1.5113730068 2.360288372 5.5504208217 6.4445421875 
6.527913747 3.6759201644 3.7919547993 1.796928066 0.47030885864 3.7460712799 1.0676394384 -0.34303408964 -2.3631650816 
2.6907147489 0.63943311133 -1.2847238516 2.8985037836 2.4038056327 1.065289832 6.1392733206 3.5233065399 6.1775310659 
3.1968740575 1.9109904914 5.1100233249 5.3926821756 6.5459837809 -0.65266831725 -1.5824705174 0.25210030931 -0.21405276272 
6.4774834021 3.6014894428 5.5053997559 1.4835516078 4.349704003 3.28094413 3.8453258577 0.47566280478 2.8778404781 
2.238415557 0.66960110372 3.8737949052 3.2713734667 -0.076225696626 4.4695065814 4.2529763149 5.1571440559 -0.79155794649 
-0.62583572583 0.36863289452 -0.48426861484 0.25489415307 -3.6156409649 -2.7915717447 -1.0396068448 -8.4624613156 -2.9772291126 
-3.3734981733 -6.8930306161 -6.1896051347 -0.2456838105 -1.014365599 -0.27104223077 -1.0515492282 0.49249257802 -1.9406133818 
0.17717138875 -1.641092931 -2.8880097459 -2.5019522868 -2.6523343935 0.52088687274 -0.90154986954 -2.2876160425 -2.5830279263 
-5.9418127754 0.50629259788 -1.1655451139 -0.99499181213 -2.3094846666 -0.58221136848 -0.12159179653 0.11950563823 -0.025115798467 
-1.1812935407 1.5567835374 -0.63456465181 0.16554515406 1.9233704765 -0.9748936035 -0.13912087147 2.4456978084 -1.7973963662 
-1.6596491664 -2.4204235701 -7.7648175174 -7.4931794915 -7.4797065239 -7.0637126037 -7.5996688687 -7.2436274252 -8.1695135092 
-7.7209465944 -8.0686606156 -6.5634589002 -9.1437299939 -4.8421144118 -7.9290882118 -7.5267884318 -3.0790352619 -8.1285138313 
-5.4914302305 -7.6351353045 -7.0807449299 -5.823426433 -6.0099403186 -7.4700971806 -7.8389591964 -9.2034313033 -7.8109826627 
-8.8215489224 -6.2242844424 -6.9104831558 -6.4211143454 -3.9521203494 -7.943265864 -8.5363469676 -8.3481743692 -4.7462778462 
-6.6863211173 -6.7200333314 -8.8882752178 -7.4577581052 -7.4564691839 -8.1698847946 -9.3307366061 -8.6536513221 -8.2612297108 
-8.6129373022 -8.6408119944 -8.5126931556 -7.797032571 -7.2495501433 -8.7797034751 -8.6248271707 -7.8648286984 -8.9449358479 
-8.2256203702 -8.1842617897 -8.7914104083 -8.5509865007 -8.8488014248 -9.379145594 -8.9256007273 -8.4943336338 -9.411449743 
-9.9222328983 -9.6854119662 -8.5924235219 -9.9274764531 -9.3426049243 -9.497851008 -9.9106663765 -8.5696577237 -9.3738244267 
-9.6377887776 -9.2926838308 -9.154695569 -9.3157486834 -9.1419606382 -7.2907522124 -8.2994726144 -9.4078619205 -4.9194344582 
-8.3376677378 -7.7646346151 -8.0059256897 -5.243194681 -9.3244759254 -9.1138382751 -9.2564992552 -9.2057857452 -9.312138135 
-6.5270378138 -9.0817853832 -9.2406264355 -7.5455983127 -6.7740010307 -8.0952003076 -6.7612962504 0.40931219434 -6.0797479786 
-8.7711049905 -1.5734683858 -7.4217520617 -9.1622512063 -9.022833722 -8.157510028 -9.6825425263 -9.6703888623 -9.6174353733 
-9.8012227823 -9.4132703022 -9.9593953947 -9.8602222065 -9.8179857589 -9.9935996844 -9.4221942769 -9.8974125465 -9.9776711458 
-9.809691729 -9.8267042402 -9.9083694748 6.0558770411 2.5346348227 7.7437087236 7.8417135881 6.8493653325 9.9651346772 
4.9007176473 7.4082293509 9.2195294387 7.0721078142 8.5510512311 5.6829492021 9.4517494946 9.5712019854 7.2810986246 
7.9799891429 9.0129460074 8.8746284832 8.4005134901 9.3271683581 8.1744103282 9.5070663764 6.7558401373 9.8454450931 
9.851633614 7.3306329662 7.1793758562 8.0916069748 7.2394217431 9.2428134414 8.0146835406 7.3490377616 8.5279651976 
8.5511410063 8.8607206325 8.8529527648 9.9716223707 9.0132298181 8.7176978132 8.1395584388 9.5412658037 8.6534881131 
9.4677767287 8.6530895718 8.1602691215 8.2878493355 7.4003309351 7.6637447305 8.5966439621 8.4687250722 9.1918479613 
9.742252629 8.654330264 7.6457254168 6.9975633004 9.0853466336 7.5373455784 9.5096192247 8.6217514719 8.8754599354 
9.5921542674 9.8256449452 9.7684852743 9.2962628319 9.9909794799 9.5455161425 9.2999907617 9.9231190857 9.146743221 
9.4433381762 9.2342917555 9.8673224496 8.9587217217 9.9291748327 9.8701614524 8.3117861703 7.9864704699 9.5466846331 
5.4392322626 7.4503145192 6.7184060113 5.6860551435 6.3121867741 9.5511373915 8.9523090872 9.1823084211 9.736941552 
9.8312604962 8.0082149796 9.8800398392 8.8494629663 7.482534678 8.0236162077 7.391998846 8.7531613346 7.3522729213 
9.3062747354 2.4836545174 7.2019068953 8.3108867839 8.9652674424 9.1180183948 3.6099595728 9.8963881912 9.819894942 
9.9945060225 9.6630024396 9.8715495609 9.9685095368 9.6502309095 9.7953279913 9.9283635834 9.6386613649 9.808871315 
9.9406300034 9.4658158854 9.5863544831 9.4012073875 5.6190991206 2.6973711424 5.3641122611 8.5639010944 4.8213196116 
9.7531967824 8.5242479378 6.8338434977 9.4599256514 6.3520431705 7.8527383748 5.7780850055 2.2734624657 9.550043939 
6.4301680242 0.15508408267 0.4803208581 1.146303302 2.5657874451 -0.54930377767 -1.2013439792 -0.45978574239 -4.2918363241 
-4.5390601388 -4.1545419679 -5.3354575578 -4.9646632909 -3.1158673484 -2.9883526073 -1.7018368404 -1.0384252005 -2.4431935909 
-2.2678789119 -2.6877768029 2.9184215409 5.622549859 0.13087502713 -0.42642978182 0.068498455566 0.58828721452 -2.1634113803 
-4.5033745335 -3.6779862428 -3.5208515721 -5.5448400529 -2.7957470996 -5.9415432527 -3.7119171886 -4.8126739839 -5.2138750285 
-2.6104232245 -1.9119867138 -3.1533628093 -1.6079374401 -1.6907393135 -5.7276727836 -6.0977453597 -4.3838187221 -5.1044380809 
-5.5724077921 -1.0864141073 -1.3938008508 -1.0139794148 -3.406871832 -3.6967006002 -1.081423902 -3.3902766697 -3.4276593135 
-3.3671230353 -4.9388893091 -3.7716162487 0.01241845099 0.91993365046 2.5976198559 2.4845417242 4.5269870963 6.1001942758 
4.7103384849 -1.6996840167 4.9866197167 6.5864226528 2.0133370319 3.1403064558 3.5441475286 3.8301856761 3.1596364692 
-1.0428700182 1.6575490832 2.595506046 2.0143937938 5.3795770056 6.2309993138 6.0783264333 2.4924558671 0.88131870206 
4.7939334389 2.5829683505 0.31133196039 4.1525070474 0.86786129139 2.9287584435 2.647155705 1.5248586501 4.6814990769 
3.8917121725 4.5125944851 -0.33078213964 -0.73796124766 2.0237295813 1.8051013234 1.321956428 -0.94001017725 -1.6900512069 
-1.5474491017 1.4189864209 2.0205264044 -0.42447922606 0.25409632505 3.0989704439 3.3479209913 4.7104506296 4.6236792486 
4.9363474229 4.4613785305 -2.2954846655 4.3600265398 5.2197080997 4.4581647759 2.7721276436 2.1582051096 7.439705796 
3.2653024672 -0.48123116862 1.6957126062 1.8053771637 1.5653151843 -0.38672682779 0.52773596466 -0.12012710971 -1.5332511218 
-0.76239142416 -4.0618629597 -1.1387567075 -3.5782533766 -4.6297876335 -3.797920239 -4.2188074986 -3.4181788253 -3.9373649329 
-1.4235549265 -4.5792292303 0.0092476985654 2.1241379413 4.8688304278 -1.5293018582 0.2115877742 1.5897951822 -1.4798556631 
-1.8573820084 -2.4045743594 -1.4097682675 -2.1898494799 -5.1446495271 -5.8759022852 -3.2101990508 -5.7791006414 -3.8548587426 
-3.3100815509 -0.83408467135 -1.1151540989 -0.19919908427 -0.1914177273 -4.1373682785 -2.2220850609 -2.1766051034 -1.3148695533 
-5.5579737616 -4.8510361739 -0.63325038086 -1.2993514391 -0.36614760233 -4.4802686253 -0.47536285881 0.20147725115 0.32376178939 
-2.2120644502 -3.6971419694 -1.6943588092 -2.4134947782 0.57828138404 0.70051592665 1.7722720803 1.4806937056 -0.21016448856 
1.7664761433 1.6410582022 5.1835918411 4.8058580249 4.3351710372 3.979454571 4.2215589284 1.2373381304 3.1886110727 
2.0617723974 -0.062681803607 2.3833078548 0.4992704221 1.2385251654 0.99892648073 4.7922489077 1.9761689101 4.8849290468 
3.5129599868 2.8513734808 8.8636190441 6.8096685123 6.1862547485 2.5980763514 0.59721868363 1.6016284256 4.7508490609 
1.2382604014 1.9716303765 2.5807052982 2.0626813087 -0.98323942801 -0.26561719106 -1.0492409275 1.6279851264 -0.59863173191 
-0.53052570131 -1.2549140957 1.131388814 1.6916876321 1.7086498354 0.82303665432 
