# vtk DataFile Version 5.1
vtk output
ASCII
DATASET POLYDATA
POINTS 356 float
0.41062 0.43598 0.166602 0.550311 0.780169 8.55465 0.694351 8.2442 0.199784 
0.792152 8.21246 8.65242 8.53851 0.725597 0.154871 8.3971 0.942705 8.58075 
8.56398 8.13187 0.443604 8.10374 7.75918 8.24765 -0.152192 0.0871521 1.19562 
-0.46553 -0.0331536 2.496 -0.760042 -0.352744 4.05878 -0.805472 -0.228076 5.48825 
-0.522955 -0.0480076 6.86765 -0.104577 0.328893 7.9258 -0.135138 1.11826 -0.137984 
-0.124085 2.38334 -0.57718 -0.342031 3.97051 -0.603895 -0.397241 5.55621 -0.429504 
-0.184687 6.77815 -0.189271 0.494616 7.60612 -0.150295 0.358292 8.48581 1.21204 
-0.028265 8.79129 2.56302 -0.169346 8.84915 4.0906 -0.169374 8.88723 5.4209 
0.0352067 8.77952 6.78478 0.604445 8.30657 7.72601 -0.153417 1.32594 8.86647 
0.0928684 2.56187 9.1216 -0.176036 4.00626 9.16461 -0.0698372 5.48027 8.91272 
0.0212127 6.793 8.82977 0.776402 7.54333 8.7125 8.96076 0.198784 0.910552 
9.30709 -0.135447 2.27427 9.47704 -0.34571 3.94368 9.37318 -0.316218 5.51061 
9.2569 -0.0124499 6.95701 9.03485 0.368637 8.10294 8.86643 1.35124 0.0452132 
8.75026 2.50646 -0.376229 9.02218 3.86263 -0.341088 9.09686 5.53654 -0.252426 
9.04045 6.81409 0.0202123 8.49555 7.6534 0.135355 8.4733 8.45923 1.26005 
8.72052 8.58076 2.52459 8.81601 8.72333 3.99041 8.64012 8.72021 5.36921 
8.78021 8.67056 6.75904 8.42218 8.31533 7.76985 8.75751 1.46696 8.69977 
8.55864 2.57862 8.84651 8.90184 3.93601 8.79746 8.7159 5.40969 8.7402 
8.62752 6.5773 8.48017 8.34348 7.43739 8.59528 1.3173 0.314186 -0.541044 
2.55191 -0.237186 -0.380324 4.2192 -0.137507 -0.658511 5.67496 -0.111487 -0.767338 
6.85553 0.0865303 -0.531588 7.87288 0.322186 -0.245693 1.40126 0.503628 9.18739 
2.73645 0.0168837 8.99418 4.25068 0.0951759 9.19132 5.70776 0.284719 9.06968 
6.83506 0.439858 9.18664 7.88831 0.709759 8.88455 1.44947 8.27764 -0.254188 
2.54733 8.85194 -0.355421 4.27617 8.88778 -0.608731 5.67852 8.77151 -0.636503 
6.92013 8.49762 -0.423134 7.773 8.36919 0.0453517 1.49903 8.34185 9.13243 
2.61781 8.63086 9.00671 4.21077 8.80406 9.3508 5.73449 8.54017 9.1052 
6.83799 8.35262 9.04621 7.68334 8.0459 8.68523 -1.17464 0.389133 4.77143 
-1.69761 5.8973 1.60017 -1.44417 5.9234 7.3819 -0.770945 0.635146 7.48391 
-1.05467 0.448214 1.59621 -0.633553 3.19149 8.30869 -0.031337 7.69829 8.33969 
-0.801805 7.9085 6.13471 -1.17957 3.12623 0.244087 -0.927155 7.92461 3.2366 
-0.232505 7.73238 0.492913 -2.20553 5.68739 4.80301 -2.1208 3.02336 3.13441 
-2.00424 3.00365 6.18835 -0.0141622 0.952232 8.3569 -1.0546 0.415492 6.1753 
-1.31946 0.169705 3.28 -0.203936 0.655704 0.56133 -1.07513 4.64082 8.25913 
-0.917274 5.91344 8.32178 -0.685741 6.80962 7.72585 -1.3531 6.93078 6.78875 
-0.592852 7.89051 7.35159 -1.37562 4.68265 0.654837 -0.962328 6.01681 0.541291 
-1.52785 6.99398 2.48015 -0.903546 6.90168 1.22476 -0.657997 7.84998 1.85216 
-1.11306 7.97418 4.71663 -1.86503 6.9989 4.07106 -1.92374 5.82596 3.23845 
-1.70099 6.97063 5.46392 -1.88542 5.82881 6.182 -2.08347 4.52115 2.42372 
-1.70771 3.09246 1.60192 -0.807419 1.47065 0.785219 -1.44194 1.13795 2.50205 
-1.7178 0.873771 3.9914 -1.73605 4.41527 6.74291 -1.5159 3.01819 7.4174 
-1.71015 0.815511 5.52472 -1.33149 1.0896 6.81306 -0.703568 1.43466 8.00622 
-2.06018 2.91358 4.73745 -2.22003 4.47331 5.42712 -2.33859 4.47615 3.96191 
9.5218 0.508744 4.7157 9.92719 5.67658 1.80207 9.53449 5.6956 7.20485 
9.12934 0.936066 7.41899 9.2001 0.890025 1.60559 9.29679 3.06425 8.27888 
8.80977 7.48887 8.0942 9.42562 7.86981 6.08324 9.54034 3.03147 0.561319 
9.22517 7.8067 3.21763 9.16674 7.58427 0.813796 10.1807 5.61856 4.68554 
9.89133 2.92902 3.05844 9.94456 2.96839 6.12062 8.75049 1.12744 8.25871 
9.47295 0.646472 6.14156 9.35569 0.565074 3.2112 8.91228 1.03634 0.547162 
9.53496 4.55411 7.92728 9.45349 5.84962 8.20108 9.28556 6.70364 7.70262 
9.69849 6.80655 6.66548 8.87504 7.54206 7.14748 9.66594 4.56227 0.764618 
9.33673 5.78519 0.792528 9.64148 6.77352 2.60491 9.39329 6.64748 1.28115 
9.15123 7.63473 1.91227 9.43714 7.82024 4.6845 9.85575 6.79483 3.97482 
9.86493 5.65245 3.18131 9.62904 6.76385 5.4118 10.1192 5.64643 6.11812 
10.087 4.40393 2.61913 9.82174 3.05563 1.78183 9.28447 1.61546 0.955102 
9.72333 1.25056 2.4971 9.82032 1.19688 3.93432 9.96703 4.37401 6.72025 
9.5198 3.09529 7.29878 9.57874 1.2286 5.40078 9.61338 1.35636 6.79923 
9.23076 1.6229 7.96343 10.0578 2.7116 4.73499 9.97251 4.26498 5.38307 
10.2977 4.31031 3.90296 3.78452 -1.44112 1.54861 3.79816 -1.50947 7.56705 
8.69107 -0.770852 4.75794 8.42892 -0.192095 7.60439 8.35487 -0.260753 1.6106 
6.49308 -0.359755 8.53116 1.42058 0.0284257 8.27566 1.20015 -1.0757 6.12429 
6.5021 -0.714656 0.303659 1.03909 -1.25763 3.21589 1.31144 -0.271103 0.443131 
3.90104 -2.22192 4.81814 6.52982 -1.71413 3.11731 6.53998 -1.6218 6.30097 
8.15328 0.563622 8.22 8.5572 -0.521584 6.20278 8.50777 -0.555217 3.15028 
8.17367 0.233594 0.417439 5.18893 -0.982601 8.42774 3.74699 -0.62221 8.31701 
2.49898 -0.926135 7.9486 2.46974 -1.4722 6.83238 1.12653 -0.793908 7.46392 
5.19458 -1.09555 0.403456 3.74023 -0.901721 0.33488 2.50338 -1.59681 2.46161 
2.48383 -1.13659 1.0295 1.18404 -0.975394 1.67989 1.08729 -1.3995 4.75239 
2.52111 -1.7187 4.06441 3.81483 -2.01468 3.21281 2.50971 -1.84299 5.49156 
3.89052 -1.8928 6.22941 5.15308 -1.91963 2.30202 6.42281 -1.19729 1.46362 
7.91884 -0.593577 0.662287 8.12253 -1.18213 2.28199 8.27574 -1.37559 3.92821 
5.21021 -1.67898 6.88425 6.45743 -1.04392 7.48584 8.22912 -1.28762 5.54289 
8.1238 -0.886756 6.9624 7.84931 -0.283239 8.25976 6.56924 -1.8168 4.73603 
5.24402 -2.03634 5.54743 5.2198 -1.99052 3.98156 3.69299 9.80539 1.78871 
3.74347 9.84564 7.33331 8.21025 9.04362 4.68036 7.93447 8.60624 7.20734 
8.21125 9.02151 1.85757 6.44782 9.11411 8.38607 1.51223 8.64356 8.1305 
1.17914 9.25885 6.14361 6.41339 9.39049 0.402762 1.05238 9.42596 3.23947 
1.29662 8.99948 0.61268 3.77321 10.3073 4.70704 6.46179 9.87734 3.17413 
6.51801 9.83752 6.17794 8.17404 8.46245 8.27216 8.23301 9.04586 6.27272 
8.39318 9.3075 3.18544 8.32897 8.81591 0.518119 5.12267 9.38458 8.25582 
3.68324 9.06192 8.22691 2.53686 9.25691 7.94851 2.37762 9.72947 6.8097 
1.2233 9.22008 7.33721 5.03923 9.5386 0.801025 3.61653 9.64387 0.433137 
2.31236 9.98885 2.55539 2.47363 9.39641 1.16429 1.21291 9.23249 1.90059 
0.949619 9.59101 4.76962 2.30203 9.91496 4.08376 3.73218 10.0481 3.15638 
2.29374 9.91515 5.41536 3.76223 9.91341 6.11633 5.21462 10.1189 2.4519 
6.43903 9.47799 1.72436 7.57496 8.95293 1.03941 7.59958 9.31822 2.5437 
7.63652 9.31016 3.97621 5.19344 9.78211 6.85177 6.30825 9.32726 7.289 
7.74243 9.35225 5.3852 7.67288 9.36688 6.74066 7.54176 8.82566 8.02672 
6.63413 9.87624 4.73351 5.15143 9.98142 5.45763 5.15458 9.9577 4.01913 
1.78833 3.73613 -1.8314 7.368 3.69035 -1.81255 4.97689 8.62649 -1.49902 
7.66738 8.20673 -0.823753 1.79669 8.33003 -1.07112 8.2178 6.18527 -0.753441 
8.11579 1.61823 -0.432815 6.28618 1.05394 -1.31667 0.750366 6.21738 -1.04826 
3.4291 1.00636 -1.6192 0.834616 1.39872 -0.68592 4.85583 3.77802 -2.43535 
3.30237 6.35536 -2.17919 6.27433 6.36947 -2.00177 8.32085 7.99982 -0.103542 
6.4586 8.51577 -1.36652 3.37187 8.47024 -1.25686 0.734405 8.11137 -0.497746 
8.29028 4.91985 -1.2643 8.23131 3.58238 -1.13037 7.8899 2.41572 -1.29356 
6.73654 2.44556 -1.75703 7.42214 1.15165 -1.06957 0.693702 4.91441 -1.45187 
0.570893 3.49169 -1.44722 2.6434 2.30577 -1.9432 1.26797 2.41243 -1.48907 
2.01515 1.29346 -1.07508 4.95094 0.939216 -1.60896 4.16517 2.35999 -2.17859 
3.28028 3.74514 -2.4915 5.55159 2.33749 -2.12525 6.19824 3.76016 -2.22683 
2.62696 5.03793 -2.0953 1.69987 6.25411 -1.60053 1.16607 7.50758 -0.84774 
2.63476 7.63127 -1.33011 4.18672 7.78042 -1.49643 6.68748 5.10174 -1.92111 
7.50953 6.35899 -1.58736 5.66461 7.72682 -1.47608 6.86253 7.59921 -1.04925 
8.15531 7.52172 -0.620575 4.83782 6.41884 -2.20526 5.53799 5.11089 -2.2567 
4.17661 5.1198 -2.39416 1.86509 3.72693 10.1419 7.30762 3.76832 9.77042 
4.86078 8.09821 9.42449 7.36237 7.88046 9.25569 2.00954 7.76217 8.91337 
8.31443 6.16942 9.31728 8.13075 1.65744 9.00732 6.22569 1.32325 9.7649 
0.801163 6.17087 9.27227 3.4413 1.25831 9.51916 0.93423 1.54901 9.00291 
4.80367 3.78437 10.3702 3.31215 6.33248 9.88188 6.17907 6.30405 10.0891 
8.15533 7.7509 8.72175 6.33438 8.08985 9.66624 3.52033 7.9902 9.26243 
1.10412 7.76289 8.82191 7.96513 4.9298 9.61063 8.2284 3.48237 9.51943 
7.61622 2.5344 9.53651 6.74355 2.52699 9.89923 7.30271 1.40607 9.30764 
0.891526 4.84733 9.6408 0.8528 3.49943 9.52651 2.77269 2.37977 9.92454 
1.44217 2.50259 9.73702 2.02265 1.39545 9.4736 4.9341 1.13251 9.81545 
4.16635 2.43169 10.2341 3.33588 3.72012 10.0764 5.49108 2.50391 9.85268 
6.11896 3.80801 10.2602 2.60899 4.99564 10.0659 1.91551 6.28803 9.93412 
1.27672 7.34052 9.3597 2.6613 7.5323 9.69491 4.14742 7.55776 9.9682 
6.77113 5.06318 10.0395 7.38431 6.31373 9.65607 5.59175 7.58519 9.65717 
6.77072 7.36129 9.46378 7.88159 7.28176 9.12561 4.89616 6.42169 10.1777 
5.45442 5.09931 10.0122 4.06895 5.13489 10.3651 
POLYGONS 709 2124
OFFSETS vtktypeint64
0 3 6 9 12 15 18 21 24 
27 30 33 36 39 42 45 48 51 
54 57 60 63 66 69 72 75 78 
81 84 87 90 93 96 99 102 105 
108 111 114 117 120 123 126 129 132 
135 138 141 144 147 150 153 156 159 
162 165 168 171 174 177 180 183 186 
189 192 195 198 201 204 207 210 213 
216 219 222 225 228 231 234 237 240 
243 246 249 252 255 258 261 264 267 
270 273 276 279 282 285 288 291 294 
297 300 303 306 309 312 315 318 321 
324 327 330 333 336 339 342 345 348 
351 354 357 360 363 366 369 372 375 
378 381 384 387 390 393 396 399 402 
405 408 411 414 417 420 423 426 429 
432 435 438 441 444 447 450 453 456 
459 462 465 468 471 474 477 480 483 
486 489 492 495 498 501 504 507 510 
513 516 519 522 525 528 531 534 537 
540 543 546 549 552 555 558 561 564 
567 570 573 576 579 582 585 588 591 
594 597 600 603 606 609 612 615 618 
621 624 627 630 633 636 639 642 645 
648 651 654 657 660 663 666 669 672 
675 678 681 684 687 690 693 696 699 
702 705 708 711 714 717 720 723 726 
[...]
CELL_DATA 708
SCALARS scalars double
LOOKUP_TABLE default
-3.8855280964 -4.755200249 -5.5464146737 -5.5934015906 -6.4236012496 -4.9947014785 -6.4271282152 -6.0232649174 -8.5896068863 
-6.3283249554 -8.8087143463 -4.8503210094 -6.368738019 0.54928643981 0.83750553478 0.28979486517 -1.6546780109 -2.1182102644 
0.90280920943 1.7435861544 3.9835862636 2.4871692657 5.5915497789 2.6741742119 0.91262690092 6.2948284793 6.8046396696 
7.9633685348 8.2370054008 4.395280302 4.8382619169 2.375741289 5.0123287889 -1.0251966202 -3.5687771436 2.061565754 
0.79760713566 0.44936340571 2.0067877798 4.5977504808 6.3276761228 4.2219242418 4.7730240843 6.8109166679 7.369304356 
7.6378068748 6.8647331874 6.3725455556 2.8238481583 4.2441597257 3.9589943996 2.4847549153 5.3109448973 4.7291636505 
6.2846100187 6.1703966041 6.2544712533 6.9016976015 7.2623627543 2.4667793834 1.6292794577 1.9285547826 5.8736355564 
2.7242187895 2.6722682589 3.0584467492 3.1042803381 6.0097904149 6.5345458862 5.6119548676 0.40204341933 -0.21578365317 
-1.0096183216 -0.28917697873 -1.7813630864 -6.6660495694 -4.5696096202 -2.6403309978 -4.7550431934 -5.2949203367 -6.0057630182 
-2.9788271625 -0.56583519088 -2.477285972 -3.1309978416 -2.9463272418 0.086566500856 0.31639810028 -1.8311004525 0.4529202813 
-2.2036054572 -6.2512388867 -5.4554388317 -6.1418011637 -0.77706535395 -3.8461187432 -2.6255502869 -7.8693814047 -6.8782422957 
-0.94341447806 -2.0096295805 -2.3766479505 -7.6403987247 -1.4711143406 -1.7446497708 -1.6505191839 0.41904834073 0.36641973251 
1.2090830581 0.38432478627 -0.5370264646 2.1347958782 1.9744670999 2.1408276721 0.53337920146 -1.6275586136 -1.2185987014 
-1.364126751 -1.5330607531 0.86383849351 -2.4531580435 -1.7718104012 -1.2806864362 -1.1321563326 0.47058842469 -2.0150371054 
0.56807160826 -1.9347411375 -0.70197103993 -1.7535289606 -2.0771802187 0.76066505156 0.47059928709 -1.2198321391 -1.4016181683 
0.11456163574 2.2496142603 1.2070259363 0.44471237629 4.8406540055 4.6671460532 5.8821345223 7.9329150063 2.4304830309 
2.099424912 4.8185134814 4.5065218378 1.4544768725 2.1825749566 1.2704895269 4.8027706798 -1.4413395847 -2.8933631406 
2.393256333 -0.044639696268 -0.12365753279 2.558361098 3.8468916128 4.2551695118 2.364078695 3.5462042181 4.7671358997 
6.2658063292 6.6704470955 5.1522191433 4.7069195036 1.0519740336 2.137508642 0.83253820114 0.94707325981 3.1990945113 
4.967854354 6.7037696734 6.5329566488 4.4268936785 4.9279918989 6.1537118225 2.1884316441 1.4673410605 1.1572433891 
2.1646049679 4.17800365 0.97629196062 3.6673689868 3.481547852 1.7988202339 4.5142941435 2.7919752541 -0.20845041369 
-0.50192999872 -1.5127239564 -0.51486408872 -0.55371375546 -4.8110126824 -2.1771963812 -0.76154138845 -3.5471387491 -3.0965149291 
-2.1264349669 -5.321730431 -4.0151560609 -0.78830973083 -2.3107456249 -1.7275626799 1.9338047148 -1.6411600446 -1.0380515601 
-1.6204526278 -2.0352169934 -1.2899104976 -1.5277841773 -1.8763318034 -1.8738225059 0.1555665252 -4.1488139469 -5.7547393602 
-5.1450669412 -0.92251529089 -0.4815724304 -0.41125338936 -2.3100288143 -2.5356309274 -0.9655530325 -2.3631896873 -0.18367562056 
1.1590912291 -1.2914762135 -1.1255703693 -1.7972157243 2.0346702232 1.5422579504 2.3444426877 -0.40245540985 -2.0980640599 
0.22492921501 -0.35411501646 -8.1194124647 -6.7133540885 -7.9137987703 -8.8601601456 -7.5825932232 -8.5575514992 -8.1353502874 
-6.4739636061 -9.3358369139 -5.8608962345 -8.9459184098 -3.8152565189 -6.7310557956 -6.4081854367 -5.0777577456 -6.3752388162 
-6.8589669096 -6.358414903 -5.0016264017 -7.5933831516 -4.9134903921 -8.6420402705 -6.0687712308 -9.0950552614 -8.7035097399 
-8.7660124421 -7.3539599044 -6.0906078548 -6.1802935997 -8.6085306958 -6.4634181805 -6.4654901499 -7.404268167 -7.5626101208 
-7.494105051 -7.4888742723 -9.1039614131 -7.8836541779 -7.5789011965 -7.7306817344 -9.4759277835 -9.2675115586 -7.9992762765 
-9.2025211818 -8.0606387961 -7.6327397552 -7.6260947406 -7.5108417343 -8.0090952271 -8.046411599 -7.9054447712 -9.1326657967 
-8.3144238121 -7.7755865377 -8.1858201233 -8.6444180388 -8.7699906949 -9.63211236 -8.7859349985 -8.589140928 -9.3978501143 
-9.5148950726 -9.613789247 -8.8398651592 -9.6249727707 -9.5024955414 -9.5075741392 -9.5013786831 -8.8364166109 -9.6393834117 
-9.6295825445 -9.1194002476 -9.0289356871 -9.0052486146 -8.8909001376 -6.5312558995 -7.9611091937 -9.5891538023 -3.7889615744 
-7.2685473732 -7.4138904018 -3.8210322469 -4.0917318862 -9.4009021102 -9.1371458239 -9.1714633151 -9.0738809837 -8.682651357 
-7.9262445017 -8.8008619585 -9.1015549376 -6.6125597601 -6.8842939263 -5.329295202 -6.6875652497 -0.0064823836211 -6.687750397 
-7.2992445816 -2.9124006366 -8.2910120052 -8.7058228401 -8.650298948 -6.1654352633 -9.6125697402 -9.7322049161 -9.5912521819 
-9.5349236296 -9.6080560201 -9.7378878474 -9.6552152422 -9.8328914012 -9.8718448787 -9.3541586704 -9.9819578698 -9.8765967872 
-9.8424837413 -9.6377026952 -9.8897757712 8.6384568559 -1.0408968957 8.4565698633 8.1176296858 8.172185599 8.4725404773 
9.2135044582 8.2750433673 4.8537938188 8.2737286502 5.8692870134 8.5765672446 2.6046867656 3.2737161723 6.1324105415 
7.4551906608 9.255019646 6.9130108246 7.3635894226 9.4136917875 7.6786357205 8.8736503278 7.1033163862 9.2128969058 
8.9204178973 9.2992158483 6.0530097066 8.953675493 6.0334675838 9.3681346565 7.5249711552 7.8264978983 8.6120686957 
8.9977330574 7.3184211747 7.1969191063 9.8677999729 8.7245514274 8.9211498044 8.4792850841 9.1107450818 8.5734553024 
9.5399703307 8.4857045085 8.7995373431 8.0858676797 6.658680645 6.9442938272 8.2604663406 8.9315432521 9.2784056313 
9.5761315073 8.5862104122 7.7086900933 6.6580218895 8.7776373271 9.3797890204 9.2050054959 8.6031972202 8.3988061045 
9.8390131882 9.6879676698 9.969403902 8.9106705188 9.5567952777 9.9301843958 9.8874211691 9.6641072758 8.9624313586 
9.4947798168 9.723062673 9.4385005122 9.938701618 9.1058282718 9.001350198 8.3502555892 7.2622919488 8.988381633 
8.2309854949 7.0280219718 8.9493184951 9.9994363407 9.5162238451 9.1607856905 9.2066760062 9.287692083 9.5179100249 
8.7897566427 9.6938844984 9.2312506704 9.2756511913 8.1744504782 5.7433924021 8.6138956976 7.0930733532 8.6598346805 
4.6131524651 -0.93757041104 6.5165983779 9.438031487 8.8755756864 9.0864594582 8.7370182785 9.1505687794 8.854678155 
8.8809575885 9.8961255559 9.9645268022 9.5980046955 9.8984483809 9.8587891018 9.7241445698 9.7721721686 9.9474774333 
9.711258098 9.9831758014 9.956316754 9.9789165497 5.2868427439 8.0902656812 2.3877884892 9.6870655438 4.7521589568 
9.7133801391 9.4406683372 5.8796792027 8.8731546612 6.1107262369 8.7142210907 5.7075251885 3.5642523986 9.6809867113 
5.3357603011 -1.0559712979 -1.0048494661 1.9338516029 3.1987959314 -1.2734693296 -0.019361550098 -2.2233697012 -3.742961695 
-3.6000115791 -2.8768591445 -5.3153851744 -5.6220345162 -2.2324496109 -2.2990567167 -2.6612922072 -0.69358135776 -4.4454883509 
-1.1951687791 -3.6024256557 2.5278561135 2.9707637276 0.23220856015 2.6537878915 0.58864895778 0.54689880334 -1.175387858 
-4.4160019595 -5.0522537662 -5.0325367421 -6.7365841974 -2.6515981416 -5.666845372 -3.632710576 -4.3439614046 -4.9123151205 
-3.9850936586 -1.3908575934 -3.0335027062 -1.0856483254 -2.9698223999 -5.0965077776 -5.1705094348 -3.1532685267 -6.5249328343 
-6.4348337423 -1.6745321585 -1.9640132194 -2.9981761718 -3.7583837795 -1.3818474904 -2.0177363097 -2.0608881725 -1.9434177398 
-4.2202806402 -3.7706886691 -3.5757634202 0.11559683815 2.7717420285 1.1694870465 1.3684690725 5.0841598854 5.2639310825 
4.9694874147 -1.2362432053 5.1219262911 5.3820882952 1.9294559283 -0.20082888411 3.948064345 2.8587735737 3.8540069477 
1.1670683859 0.43418741146 2.8040149866 -0.021304357732 4.6861510726 5.5960793072 5.6836454338 -1.8490939381 1.0569263629 
6.6632590605 -0.59865206491 1.5086116524 1.541762454 0.98782424064 5.0103221871 5.0667517962 -0.15392501034 4.1219735958 
4.4877192975 4.7254318777 0.30323378536 0.90541316528 0.53446065883 1.1540855919 0.35488652393 0.48145195731 0.75328411817 
1.956208106 0.81394925342 1.5541326569 1.1531795477 0.9282509995 4.8619784045 8.4569730945 2.3484951428 8.4955621047 
4.9152353407 2.8223231241 7.3853268435 3.9161467601 0.79992842339 3.8476084346 -2.1857438621 2.9374738504 0.91726398269 
-0.69477727941 1.4879004781 -0.13749865792 0.83147492791 1.5987485603 -0.69129273793 -1.7312363837 1.1734469976 -0.78618641584 
-2.8810285493 -2.6759692132 -2.823828524 -2.9882548749 -2.7252884938 -2.4854959822 -2.157685927 -0.42178251385 -1.2717039038 
-1.3476920227 -3.5067202825 -4.0334200446 0.86929110191 1.0582193215 -0.58189927421 1.9939390244 1.8028563303 -0.68489806556 
-2.6031891637 -3.7369848456 -4.0902102699 -3.0735452068 -3.3646801322 -0.16372653438 -5.0156451296 -1.4065027398 -3.1870973083 
-3.5740505496 -4.2118339433 -1.1256161824 -0.54499692384 -0.96805833505 -1.8519590922 -5.9255032098 -5.5266683419 -4.2788886633 
-3.9827710324 -5.7742265059 -1.3050860182 -0.063173045083 -0.19801776037 -0.95868221198 -3.3404571585 -0.7586253582 -2.8476956307 
-2.2619130094 -0.45690763655 -4.1041174655 -1.3990009011 2.0431286367 1.9692090837 1.190793456 -0.2861358292 6.1499029488 
0.91825282944 0.54553954756 5.4672789266 5.2967895451 4.0320414535 7.9368926424 8.6629924962 1.7051073908 1.4693892327 
3.3291441895 -0.58245084997 1.2235163495 1.1900771326 1.1514901497 4.0138185235 5.0709053526 3.8914207644 -1.9718093651 
3.8857600419 5.3243763214 0.47559379224 5.3695642608 1.6029840558 2.9486221464 3.4655179302 3.3748881686 5.8738608929 
3.5761421506 0.58000836822 3.0087251391 -0.50478478715 -0.34781533689 2.262017402 1.8091380032 2.4422514804 -1.0022047868 
0.33645787758 -1.0053213206 1.3846052973 2.6080259559 -0.99228097815 -0.17300244812 
