# vtk DataFile Version 5.1
vtk output
ASCII
DATASET POLYDATA
POINTS 356 float
0.508271 0.431072 0.226489 0.453809 0.716 8.61709 0.585822 8.28875 0.199383 
0.836916 8.17056 8.66195 8.53093 0.726761 0.0762116 8.45221 0.960145 8.60096 
8.4443 8.16113 0.410927 8.23635 7.8421 8.30887 -0.117005 0.225842 1.12367 
-0.579841 -0.218823 2.44631 -0.824315 -0.358519 4.03693 -0.7763 -0.238625 5.4898 
-0.534649 -0.0666553 6.85551 -0.144414 0.274696 7.9258 -0.0644945 1.19325 0.0225128 
-0.153306 2.32872 -0.635358 -0.416114 3.95432 -0.585367 -0.37669 5.55082 -0.470901 
-0.244249 6.83171 -0.219421 0.594669 7.6061 -0.105102 0.460169 8.4415 1.26068 
-0.0872658 8.74632 2.55553 -0.0878444 8.71553 4.0663 -0.153639 8.8521 5.39942 
0.105416 8.67557 6.72611 0.481548 8.54309 7.80805 -0.115458 1.38771 8.80962 
0.108959 2.6073 9.13324 -0.106762 4.03197 9.09623 -0.0798088 5.47731 8.85371 
0.0456406 6.80467 8.7858 0.601477 7.47848 8.68934 8.90426 0.306719 0.94982 
9.17107 -0.105631 2.33066 9.37811 -0.289811 3.92694 9.49218 -0.36731 5.49753 
9.28561 -0.0764657 6.96492 9.02945 0.363657 8.06202 8.83997 1.38635 0.0855185 
8.70114 2.42674 -0.360527 8.99093 3.88455 -0.350364 8.97841 5.56203 -0.230352 
9.02125 6.76191 0.0353495 8.48788 7.55838 0.214688 8.50813 8.40203 1.26058 
8.68385 8.54824 2.49609 8.66258 8.59708 3.97053 8.80071 8.67868 5.45068 
8.52851 8.61433 6.76482 8.4796 8.32376 7.77065 8.72883 1.46502 8.64012 
8.55156 2.57125 8.80305 8.79685 3.8702 8.77681 8.88424 5.44517 8.9113 
8.72904 6.64014 8.60275 8.25321 7.37357 8.52338 1.33046 0.2594 -0.480007 
2.60916 -0.0647736 -0.382678 4.23436 -0.158396 -0.693597 5.72857 -0.136541 -0.762326 
6.84174 0.234833 -0.445461 7.96512 0.29288 -0.311561 1.40705 0.590444 9.05982 
2.747 0.0136907 9.00761 4.23016 0.0700965 9.20264 5.73864 0.229435 9.13574 
6.78818 0.544789 8.99548 7.93425 0.563749 8.99633 1.38962 8.32521 -0.413231 
2.48374 8.9247 -0.495408 4.24834 8.8619 -0.63207 5.75286 8.97403 -0.811794 
6.97171 8.66305 -0.544268 7.84839 8.36251 -0.0685294 1.51165 8.12387 8.84758 
2.613 8.6225 9.03008 4.14213 8.60514 9.16414 5.70824 8.39328 8.98283 
6.79726 8.22901 8.98105 7.64358 8.01831 8.68259 -1.21512 0.327852 4.74046 
-1.59262 5.86619 1.60617 -1.32819 5.92259 7.32779 -0.657335 0.701561 7.41259 
-1.01658 0.451824 1.67308 -0.741126 3.15242 8.36553 0.162249 7.60211 8.17217 
-0.853002 7.94307 6.12154 -1.07855 3.14367 0.337253 -0.967204 7.89516 3.24627 
-0.229341 7.71809 0.452419 -2.19509 5.65978 4.76526 -2.05582 3.02491 3.10957 
-2.03514 2.98863 6.14426 0.0813634 1.06805 8.17654 -1.20662 0.322019 6.2078 
-1.12541 0.371825 3.22351 -0.299861 0.656553 0.284263 -1.11344 4.62529 8.29629 
-0.768941 5.85581 8.17287 -0.883005 6.85572 7.86532 -1.3032 6.95036 6.73939 
-0.591475 7.83728 7.35278 -1.274 4.64072 0.751618 -0.966795 5.94219 0.524848 
-1.64964 6.98222 2.45952 -0.946511 6.85098 1.2569 -0.724888 7.91302 1.7955 
-1.12372 7.95871 4.71464 -1.75495 6.97734 4.0943 -2.03238 5.83102 3.22803 
-1.642 6.93593 5.45609 -1.95733 5.84993 6.19155 -2.03132 4.52629 2.45261 
-1.67523 3.10848 1.59148 -0.863138 1.43177 0.888674 -1.4969 1.13411 2.49666 
-1.77551 0.83926 3.99795 -1.87982 4.43299 6.78551 -1.41637 3.03102 7.37992 
-1.64233 0.880301 5.48208 -1.39174 1.04679 6.85915 -0.809851 1.34699 8.06506 
-2.1403 2.9266 4.68301 -2.22308 4.49021 5.4314 -2.2751 4.46778 3.94641 
9.45633 0.536256 4.73443 9.98586 5.63123 1.78921 9.61 5.65368 7.27017 
8.82007 1.04679 7.3385 9.06339 0.889893 1.75045 9.38909 3.08027 8.3011 
8.72889 7.44766 8.08452 9.32456 7.79852 6.06174 9.47678 3.08528 0.572366 
9.16868 7.80978 3.21881 8.98561 7.49384 0.785689 10.1057 5.57582 4.66806 
9.8666 2.94959 3.11743 9.95877 2.93246 6.10294 8.87583 1.14491 8.33165 
9.26981 0.703202 6.1726 9.53185 0.533584 3.10955 8.8331 1.03742 0.553556 
9.45993 4.45947 7.93969 9.24948 5.86006 7.98061 9.11104 6.67203 7.6087 
9.74721 6.74488 6.71439 9.01248 7.56549 7.14573 9.55243 4.6022 0.762327 
9.27064 5.76176 0.783606 9.66583 6.77823 2.60451 9.51514 6.72022 1.24036 
9.27132 7.68667 1.89523 9.50293 7.82624 4.67187 9.72444 6.72267 4.01822 
9.90849 5.67475 3.18118 9.70975 6.81079 5.41226 9.97646 5.64546 6.00593 
9.99468 4.37971 2.58883 9.76188 2.99123 1.71859 9.31265 1.59189 0.903813 
9.8375 1.28736 2.43571 9.85901 1.1083 3.9363 10.02 4.4089 6.72562 
9.55167 3.07141 7.2622 9.69095 1.22102 5.37561 9.75482 1.35076 6.78658 
9.27643 1.62516 8.00514 10.074 2.77385 4.67446 9.94468 4.2533 5.37687 
10.2002 4.36885 3.9189 3.78891 -1.48759 1.59085 3.83349 -1.54738 7.54807 
8.65274 -0.768587 4.74735 8.38443 -0.109603 7.51811 8.51947 -0.363706 1.5037 
6.5111 -0.475437 8.58705 1.34182 -0.0260946 8.33431 1.11822 -1.24199 6.18683 
6.43977 -0.745143 0.211014 1.04012 -1.13766 3.26687 1.2859 -0.41227 0.388141 
3.87812 -2.17238 4.8244 6.48681 -1.73401 3.09901 6.50545 -1.53539 6.27712 
8.06877 0.586312 8.19101 8.55413 -0.424927 6.18176 8.57026 -0.640016 3.14959 
8.13215 0.306489 0.470287 5.14838 -0.859463 8.36253 3.73117 -0.656032 8.31121 
2.50495 -0.987519 7.96855 2.48391 -1.37426 6.78231 1.20952 -0.630841 7.40286 
5.16439 -1.18962 0.49842 3.65591 -1.10375 0.168745 2.43754 -1.65823 2.36397 
2.55154 -0.973404 1.0457 1.16326 -0.925386 1.71543 1.12069 -1.43474 4.76134 
2.47536 -1.80734 3.97896 3.79581 -2.06014 3.20181 2.54641 -1.88487 5.46119 
3.86758 -1.8246 6.22135 5.14221 -1.95735 2.35963 6.47063 -1.34367 1.39577 
7.86997 -0.654881 0.612184 8.07167 -1.17095 2.31284 8.21793 -1.39436 3.9104 
5.18015 -1.63861 6.83405 6.46108 -1.12162 7.49805 8.20059 -1.31034 5.54654 
8.15574 -0.994102 6.98405 7.89123 -0.258895 8.2332 6.53607 -1.76272 4.73885 
5.22351 -2.08794 5.53715 5.21696 -1.99823 3.97704 3.68442 9.69642 1.81452 
3.80745 9.76153 7.34341 8.41938 9.32516 4.77186 7.90477 8.51851 7.32495 
8.09615 8.83705 1.87388 6.38358 9.02145 8.35216 1.47818 8.58204 8.1431 
1.12721 9.31004 6.14059 6.30777 9.04181 0.476612 0.979435 9.54863 3.2233 
1.29051 8.95453 0.571179 3.72046 10.2362 4.70779 6.42724 9.65458 3.22568 
6.50935 9.77623 6.16079 8.03233 8.33203 8.18543 8.0701 8.82841 5.80578 
8.37631 9.24348 3.13298 8.17538 8.59846 0.649708 5.09679 9.40578 8.36679 
3.6698 9.10544 8.25019 2.48523 9.3564 7.91798 2.3997 9.62916 6.70029 
1.27076 9.29859 7.35719 5.02796 9.68818 0.755252 3.61412 9.62624 0.443556 
2.35351 9.90135 2.5709 2.43816 9.42644 1.14569 1.15701 9.2828 1.88713 
0.967005 9.50752 4.7697 2.31871 9.75478 4.03387 3.7107 10.1173 3.15788 
2.26339 9.96656 5.39847 3.72626 9.84949 6.08911 5.21948 9.98294 2.43495 
6.48653 9.70514 1.66829 7.61795 9.07358 0.888879 7.60038 9.28072 2.53393 
7.66134 9.37892 3.96208 5.10006 9.80554 6.83633 6.34374 9.447 7.33621 
7.66919 9.48849 5.44305 7.77953 9.30303 6.82806 7.56008 8.99207 8.00916 
6.56658 9.99143 4.74126 5.14497 10.0376 5.46028 5.16023 10.0354 3.97664 
1.78073 3.6703 -1.92711 7.4065 3.64592 -1.86971 5.05061 8.49516 -1.36491 
7.58446 8.06126 -0.729597 1.90483 8.00837 -0.694244 8.27795 6.20899 -0.744892 
8.13897 1.53768 -0.415102 6.22934 1.0133 -1.47248 0.705954 6.25165 -0.983544 
3.43105 1.02374 -1.63325 0.818419 1.34822 -0.604957 4.83621 3.75426 -2.39785 
3.29712 6.29719 -2.12143 6.25808 6.38369 -1.93628 8.32434 7.95369 -0.0508246 
6.25773 8.16522 -0.998492 3.40218 8.40913 -1.11054 0.918866 7.93489 -0.332354 
8.25487 4.95255 -1.35467 8.25826 3.58835 -1.04037 7.89132 2.44682 -1.32995 
6.72896 2.46056 -1.67623 7.38885 1.14069 -1.08957 0.62744 4.92532 -1.51681 
0.633442 3.5829 -1.26234 2.6505 2.36651 -1.81156 1.20017 2.4281 -1.50691 
1.89189 1.15142 -1.32322 4.9243 1.01215 -1.44678 4.13684 2.30021 -2.14793 
3.32671 3.697 -2.43191 5.55208 2.31365 -2.13484 6.18 3.73346 -2.29162 
2.56573 5.02201 -2.25018 1.78213 6.23438 -1.64371 0.97043 7.66434 -1.15677 
2.59039 7.81746 -1.53194 4.13041 7.81628 -1.5752 6.69023 5.09466 -1.93046 
7.4659 6.31977 -1.49923 5.64524 7.73924 -1.55724 6.97387 7.77853 -1.23704 
8.15508 7.518 -0.621572 4.84181 6.41231 -2.24132 5.5466 5.11983 -2.37511 
4.16326 5.062 -2.28037 1.83788 3.71887 10.0522 7.17281 3.83407 9.6599 
4.99765 8.28099 9.66716 7.26822 7.8162 9.07089 2.05551 7.84305 9.15864 
8.08019 6.10755 9.19622 8.04685 1.67313 8.99695 6.18944 1.31639 9.81323 
0.782157 6.06803 9.23888 3.41143 1.22549 9.71132 0.935331 1.51679 9.04226 
4.79516 3.77646 10.1047 3.35102 6.21542 9.93842 6.27287 6.31692 10.1212 
8.04778 7.72007 8.73178 6.24076 8.05533 9.46105 3.41111 8.04991 9.3994 
1.03629 7.77733 8.9066 8.04778 4.89795 9.49392 8.15028 3.51471 9.53307 
7.71808 2.57359 9.65403 6.71297 2.5251 9.76936 7.30206 1.39995 9.36602 
0.954387 4.77979 9.67603 0.861905 3.47672 9.4787 2.7646 2.46325 9.8146 
1.42236 2.4533 9.79992 2.0419 1.37055 9.42858 4.92424 1.1727 9.63737 
4.14207 2.3918 10.192 3.3538 3.72277 10.1728 5.47523 2.49651 10.0195 
6.14122 3.73225 10.3041 2.6217 5.01146 10.0349 1.83036 6.31953 9.86696 
1.3852 7.29857 9.25069 2.69452 7.43768 9.5903 4.08442 7.57881 9.80341 
6.72565 5.00269 10.0429 7.3176 6.29474 9.6465 5.63619 7.45365 9.69562 
6.79021 7.46198 9.51341 7.88291 7.24199 9.10026 4.8354 6.48147 10.2504 
5.46895 5.12898 10.166 4.07271 5.07603 10.4305 
POLYGONS 709 2124
OFFSETS vtktypeint64
0 3 6 9 12 15 18 21 24 
27 30 33 36 39 42 45 48 51 
54 57 60 63 66 69 72 75 78 
81 84 87 90 93 96 99 102 105 
108 111 114 117 120 123 126 129 132 
135 138 141 144 147 150 153 156 159 
162 165 168 171 174 177 180 183 186 
189 192 195 198 201 204 207 210 213 
216 219 222 225 228 231 234 237 240 
243 246 249 252 255 258 261 264 267 
270 273 276 279 282 285 288 291 294 
297 300 303 306 309 312 315 318 321 
324 327 330 333 336 339 342 345 348 
351 354 357 360 363 366 369 372 375 
378 381 384 387 390 393 396 399 402 
405 408 411 414 417 420 423 426 429 
432 435 438 441 444 447 450 453 456 
459 462 465 468 471 474 477 480 483 
486 489 492 495 498 501 504 507 510 
513 516 519 522 525 528 531 534 537 
540 543 546 549 552 555 558 561 564 
567 570 573 576 579 582 585 588 591 
594 597 600 603 606 609 612 615 618 
621 624 627 630 633 636 639 642 645 
648 651 654 657 660 663 666 669 672 
675 678 681 684 687 690 693 696 699 
702 705 708 711 714 717 720 723 726 
[...]
CELL_DATA 708
SCALARS scalars double
LOOKUP_TABLE default
-5.2739637707 0.10542722703 -5.5610271489 -7.479539223 -6.1206836276 -5.4879980893 -4.3662047189 -6.0489992 -5.3475307255 
-5.6051363163 -7.837261051 -5.3690064302 -8.787455697 -0.46956559675 2.7624564292 2.4620241015 -0.87208055785 -1.3311159182 
1.0098019409 1.4717508549 2.2653816516 5.084576897 5.1327166367 4.28998355 2.6519071767 7.1149433865 7.3269735717 
4.4583634428 4.5760898913 5.5354154697 0.75996580371 5.5115274389 1.3841842814 -1.0364280392 -2.7256529274 1.1812984036 
0.45511114123 0.60604696016 1.0403740192 3.4305634392 6.5702024364 3.6524630664 4.1022199729 7.2435170162 8.1255497072 
7.7774537746 7.5806494502 6.6752734749 3.2488375043 3.7598323945 3.4643006167 1.9266274195 3.4929857987 5.544360921 
6.7379803641 7.0023556054 6.2442218245 7.7244422835 7.6856817672 1.4684632616 2.840238177 2.780466323 5.10822977 
3.4480935972 2.7905917924 4.1093666783 3.5564258662 5.3837609245 5.8627517735 4.995966679 0.44049553939 0.010006523426 
-0.9229876847 0.16907509938 -3.8499365671 -3.7124723509 -4.7134607056 -2.109121371 -0.072306613079 -5.5003452272 -6.1010218901 
-6.1128407594 -1.6899712954 -1.9958679656 -2.457470283 -2.6082166218 1.7269619736 -1.0349949432 -1.7585829513 -0.96719699802 
-2.4029233467 -6.1204830021 -5.081761248 -4.1577841642 -0.91413871934 -2.4457774808 -6.169729329 -6.5999976714 -8.821469185 
-0.63555931153 -1.2845277716 -1.3088545601 -6.778908974 -2.0649874698 -1.5189589224 -2.0096808134 -0.047668918047 1.501340228 
1.0858289064 0.50787967665 -0.55210705859 1.2828279783 1.5115050666 0.92416857606 0.43436542507 -1.1560875089 -0.88592815753 
-0.69995298843 -1.9181836888 -1.620355238 -3.3176220505 1.3385195055 -1.3716558019 -0.22540264406 3.6131458613 -3.2083642849 
-3.313508233 -2.9348095391 -0.05283580355 -2.5927558841 -1.595291168 0.24157239877 1.2278485927 1.2381278643 -0.87199822839 
1.3910127268 2.267885178 -0.9426062861 1.9537028893 2.6100678976 5.230885853 3.7108180464 3.4921895069 4.9260865764 
4.6450761065 4.1450274814 3.615082917 4.4415391707 3.1312822636 2.2837795848 3.1082811783 -1.5731260425 -2.0856792045 
2.0686257151 0.12888168174 0.402554578 2.298162366 3.4352605833 4.18684892 4.1622446167 3.1700808997 5.4473883699 
5.6128229912 5.399657331 6.3740614871 5.5732808029 3.8821148166 0.64526249122 -0.54291702362 0.28199500208 2.5517706223 
5.5492858586 5.6623372335 5.9644201321 4.435720492 6.4668353883 6.8767396262 2.3766205319 2.567227497 1.9826938519 
3.6794346218 2.6065348331 0.20956735511 2.1472642222 3.1054464803 2.8642148191 3.1366272724 1.9804343998 -1.5307487671 
-0.17976403476 -1.1735470932 -0.14358219921 -0.89913348799 -4.0300719968 -3.0172007625 -0.11084508829 -4.7941304038 -4.2640654792 
-3.1749874722 -4.2321450029 -6.6395117458 0.12999931782 -1.6054743841 -1.0181983452 1.1741650397 -1.8378528022 -0.10207052912 
-1.4550143841 -1.4132502314 -0.80294178603 -0.65802578714 -6.1170440521 -2.0442171142 -1.0548763006 -7.9893690463 -3.8733715677 
-2.2881146283 -1.074837892 0.20501017267 0.094853534251 -4.3417915117 -1.9532902548 -0.65918413483 -1.8261522521 -0.18817015793 
1.9158780767 -0.67585035338 0.025429818324 -1.4384770204 1.5133198479 0.41630119035 1.3391743103 -0.28625334525 -1.469624811 
0.51633063281 0.039981617928 -8.5554321519 -7.0448652399 -7.5669717973 -9.509406707 -7.9269277018 -8.7043539062 -8.645346915 
-6.7107844633 -8.3754473237 -6.8002224624 -6.591669932 -2.6001703907 -7.4297347841 -7.9200159296 -6.8035122286 -6.5356429406 
-7.3214126692 -4.165744705 -5.9069707329 -7.5835188604 -6.1135734156 -9.0904432583 -7.2670906582 -8.4985343284 -8.8098874544 
-8.0740036855 -8.2419230892 -6.4750470375 -7.7735562282 -7.1782778572 -6.5229066091 -6.4571651238 -7.2019736386 -6.8837425688 
-6.1765710803 -6.0755072075 -9.654010717 -7.8993259019 -7.6325431301 -7.0634835107 -8.7085011686 -8.8847594191 -9.0536204185 
-8.4946061633 -8.9032530707 -7.7142695689 -6.3137027726 -6.2501027719 -7.6165197956 -8.9098924307 -8.3842170739 -9.3097383973 
-7.3465184217 -5.987661066 -7.781071259 -8.5963004696 -8.3487083044 -9.1745754727 -8.8772175495 -8.5746188085 -9.3989396902 
-9.7397540091 -9.6841743134 -9.099831338 -9.6625624323 -9.5334298695 -9.2341095564 -9.7259509958 -9.2693842877 -9.2262060102 
-9.579680839 -9.1909439369 -8.7176933931 -9.3656905069 -9.1460124209 -6.9907916702 -6.4847566731 -9.5260699585 -2.8478864669 
-7.1787091338 -7.134671006 -5.3945341532 -6.6688578799 -9.4856400447 -8.7596457784 -9.104210849 -8.7499152618 -9.2431261171 
-8.5235516298 -8.8326577399 -9.5137820385 -6.295282356 -5.4367437102 -4.4418168179 -4.2214836814 0.20503742373 -4.6274418823 
-7.5808092697 -1.9556783949 -8.3655495649 -9.3180318197 -8.1900125395 -6.0526128561 -9.7023975347 -9.7891171813 -9.6980945594 
-9.2185575136 -9.7774867288 -9.6833858353 -9.4492466262 -9.8282452598 -9.9386691115 -9.3369737225 -9.9788432105 -9.9401368758 
-9.8180931542 -9.3628949546 -9.7661518564 8.066256099 4.2443416181 7.3387538796 9.6447610172 7.4287184812 4.1917548706 
9.5396895552 7.3334306398 4.0471144047 8.2266194207 7.9650726898 7.7668970499 6.3467108622 5.9708829807 5.4498700405 
8.0646469154 8.0572742076 6.4984457875 5.8998194029 8.6932479975 5.8542004892 9.5436688869 6.4647359514 9.6494032817 
9.6244091774 8.643773814 7.6870466411 8.6924538527 6.7920972625 7.499975741 8.0965452133 7.2561181896 8.3563470437 
8.326874817 9.4535155858 9.4959142952 9.9823850213 8.8923197752 8.8117725398 8.3486711271 9.4752300997 9.1197359595 
9.3208937678 9.0401250609 7.9425310997 7.2022996853 7.4143366457 7.6100813805 7.4276586863 8.416006453 9.2741025662 
9.8080042379 9.0236410903 8.104157905 7.3516917512 8.8969659185 8.7967005689 9.7414151245 7.9435675589 8.2907415546 
9.5413127804 9.5340371015 9.7623742617 8.995679143 9.6171229117 9.8867306924 9.6601692779 9.5474912377 8.9779749964 
9.856829424 9.524152314 9.8018017725 8.1292715781 9.7058060274 9.7759522611 7.503444296 7.6738516377 9.6222256032 
7.6393285723 7.0242067004 6.9549476285 9.9195470856 8.011011062 9.4427472918 8.5688129816 8.9795717511 9.6538778229 
9.4500574268 8.9171430945 9.5260926947 9.4859912179 6.2299261343 5.1281592117 5.197293957 6.7461062144 5.6540228417 
3.0566297496 4.1595107958 5.2778497846 9.1598504285 9.3661323997 9.390891885 9.8612633459 9.3233577307 9.0989616166 
8.9057898634 9.8046442924 9.9750080523 9.6294172016 9.8473696098 9.6097298078 9.9209154498 9.5298562163 9.9678115325 
9.9042242638 9.6144739831 9.8210251518 9.9949079304 5.6988844527 6.6773404718 6.1517213187 3.8357647179 4.6706848239 
8.2416248827 6.8362837025 6.6424416022 7.4764217175 5.1345014047 3.6151536647 7.1633171145 2.737610592 5.0765170016 
5.7559722867 -1.6243990556 -1.5644014638 1.3848944109 2.8952175405 -1.3586810465 0.46114882817 -3.0288723879 -3.8363557894 
-2.418322151 -2.7425868656 -6.6627721708 -6.2373858166 -1.5171226485 -1.559984715 -2.7778496826 -0.41633934802 -4.0482732701 
-0.83240854046 -2.3694236448 2.1584107864 0.19677948662 -1.6496134361 3.3500417467 0.68301277288 -1.5502862617 -2.2407934253 
-2.482129932 -4.0658449424 -2.4939349461 -6.8278715709 -3.5111892334 -5.213668304 -3.8017506593 -6.4682204431 -6.70389083 
-4.7196427299 -0.60555017226 -0.84562035485 -0.64575420198 -4.7305633399 -5.2023428058 -6.0125474288 -2.5523702753 -5.7824716767 
-5.2771859271 -2.7714646261 -1.8290635152 -3.1666474341 -2.5591439109 -1.4250491244 -3.1282882166 -2.6537228059 -1.7441163494 
-4.6085930352 -4.2299895636 -4.7209590968 -0.18566699232 3.506988832 2.6458697614 2.2480876166 7.340248764 7.2493504365 
3.5086355691 5.9120775445 6.7341416971 6.5324396607 5.9984232736 9.2257558736 2.1952284459 -0.066061880595 1.8901167617 
1.357044221 1.108927757 3.1465995852 1.0466799225 3.5007627239 4.4307730004 5.7916176653 7.0219287472 1.3170954377 
5.9081429492 3.595001827 1.7128769454 1.3032584575 1.31794036 2.7623096931 3.1208122308 2.6485156168 3.4812073078 
3.8474449758 4.4206668244 1.172238513 1.2426700945 -0.2419040938 1.0978452087 1.1268334996 0.98998850028 -0.47370653637 
1.2353129455 0.53236291717 0.70150780742 2.1319326578 0.64395814886 5.2654831372 7.4796695888 5.0010863958 8.7297865489 
4.6637084528 9.3226774929 6.0146337148 5.2939563908 4.6791246332 3.8327408436 3.6736678329 4.5525276981 2.1985580618 
4.3736173322 4.9670048938 0.38440940859 0.7378254354 2.7638458275 1.9920290926 -1.35741001 -1.0093208072 0.43743256491 
-3.7259117899 -1.3054279351 -2.7734035979 -5.4100165617 -4.0058263898 -0.65029652737 -0.46912011694 -0.59483507787 0.59180556488 
-2.4265591784 -2.3150156919 -2.7575807762 0.88423861662 1.7775905716 -0.96999096297 2.1248464592 1.479421607 -1.0699878991 
-1.9253586249 -1.9373296219 -4.751558964 -3.2843709425 -4.5871505505 -1.5762724245 -3.9001429358 -2.0456123843 -3.4768787769 
-3.9373442145 -4.0787772484 -0.060125700359 0.3424334509 -0.34161412515 -2.200997431 -5.0948190234 -5.8853220839 -2.1855113972 
-3.8383098021 -4.1064199175 -2.395230125 0.41448392139 -1.452320277 -0.50643851627 -1.4465640086 -1.1771447137 -3.186737757 
0.020825108341 -2.3404456767 -3.9740893783 -3.3016507159 1.5114880522 2.0521567158 1.036129664 -0.016593793423 4.717984551 
4.5563291776 1.8588517654 1.932819643 4.1792601994 5.1901404889 4.7897648638 4.7193368109 2.6010120379 2.5762824131 
4.2232361601 -1.5954650032 0.8854423712 1.8867507006 1.0301205361 4.1453729829 5.9134674016 5.3767766576 2.2424611841 
1.6894801232 5.2093186531 4.6191978173 2.3786817108 1.4849035826 1.626769323 2.8097270032 2.7559806045 0.93168864613 
4.098396033 2.2190773691 4.3174100451 -0.26590139078 -0.72117828793 0.27723737131 1.5073484468 2.3566723309 -2.1444168634 
0.61424301723 -0.4502407239 -1.384095485 2.514337406 -0.21363282314 0.25417305477 
