# vtk DataFile Version 5.1
vtk output
ASCII
DATASET POLYDATA
POINTS 356 float
0.303316 0.360145 -0.0301273 0.509038 0.671491 8.54965 0.672001 8.14838 0.154835 
0.862736 8.09917 8.48541 8.54307 0.703291 0.0898632 8.31931 1.02687 8.3686 
8.36507 7.98959 0.398094 8.11847 7.67581 8.17738 -0.125597 0.110298 1.15547 
-0.532061 -0.175714 2.43948 -0.704834 -0.246362 3.98066 -0.762823 -0.22029 5.40931 
-0.641482 -0.098013 6.83176 -0.0339922 0.398403 7.59246 -0.0518097 1.26322 0.0424819 
-0.137229 2.35556 -0.831085 -0.339272 3.90411 -0.576091 -0.483109 5.50383 -0.622558 
-0.345735 6.81275 -0.275228 0.401506 7.50928 -0.290558 0.220125 8.52042 1.13524 
-0.0297057 8.49875 2.59859 -0.136437 8.70074 4.0069 -0.176111 8.70851 5.41312 
0.0624541 8.53242 6.65577 0.35578 8.41412 7.81559 0.130894 1.43852 8.55177 
-0.0642447 2.53565 9.13556 -0.250301 3.8442 9.09776 -0.0691258 5.48966 8.89931 
0.0819202 6.60791 8.65111 0.556181 7.56045 8.79558 8.93165 0.280817 0.900137 
9.16291 -0.113392 2.24478 9.18991 -0.264004 3.8717 9.25701 -0.196106 5.4523 
9.11006 0.0969399 6.83591 8.65257 0.590817 7.90413 8.89488 1.34776 0.0714969 
8.65712 2.50396 -0.388361 8.93915 3.93573 -0.298085 8.97513 5.44767 -0.288156 
8.87673 6.68045 0.0620284 8.48848 7.55026 0.0232083 8.461 8.38904 1.19542 
8.7046 8.59535 2.53345 8.72241 8.73182 3.89134 8.60013 8.62503 5.30139 
8.53601 8.54414 6.697 8.40601 8.32001 7.66251 8.47048 1.55918 8.38477 
8.41923 2.50009 8.75858 8.59367 3.9641 8.7496 8.56603 5.43195 8.59381 
8.60306 6.4854 8.53805 8.14686 7.14656 8.39739 1.38931 0.375505 -0.360284 
2.57391 -0.316539 -0.506487 4.17086 -0.201222 -0.761055 5.60698 -0.109867 -0.811458 
6.8368 0.0134532 -0.758582 7.80695 0.467037 -0.0889405 1.47399 0.593221 8.83652 
2.57386 0.114688 8.86014 4.09249 -0.0712652 9.06866 5.67177 0.265349 9.03646 
6.85848 0.399401 8.99239 7.72841 0.726162 8.72039 1.38632 8.27852 -0.401225 
2.47418 8.85411 -0.501099 4.20185 8.97854 -0.781048 5.63113 8.8078 -0.758637 
6.87778 8.70123 -0.587706 7.81284 8.25483 -0.0809216 1.50461 8.09359 8.99319 
2.5531 8.5917 9.03455 4.16162 8.67129 9.26336 5.58353 8.41927 9.02033 
6.70039 8.07085 8.88966 7.53373 7.94321 8.57007 -1.48971 0.145215 4.74903 
-1.7593 5.85754 1.60148 -1.49103 5.76924 7.19836 -0.972225 0.635757 7.47023 
-1.20723 0.406318 1.55965 -0.750237 3.1169 8.20351 0.0847629 7.47476 8.05273 
-0.87705 7.7357 6.03227 -0.913013 3.10213 0.345266 -1.03328 7.85889 3.1945 
-0.135527 7.56545 0.531832 -2.24998 5.71781 4.74617 -2.12274 3.00692 3.14044 
-1.92889 3.034 6.00588 -0.131526 0.775921 8.39692 -1.29204 0.214733 6.10872 
-1.46195 0.0885574 3.13817 -0.381591 0.553885 0.302071 -1.12873 4.54615 8.13635 
-1.01313 5.87892 8.24765 -0.717376 6.6863 7.58408 -1.43111 6.88761 6.6585 
-0.518 7.68813 7.18699 -1.43659 4.58472 0.631143 -0.957819 5.86754 0.507009 
-1.46313 6.78513 2.5518 -1.14997 6.92724 1.1329 -0.721107 7.79472 1.75276 
-1.13406 7.87073 4.77174 -1.77076 6.93631 4.01342 -2.02126 5.76344 3.24589 
-1.68822 6.82843 5.37691 -1.87918 5.77506 6.07406 -2.02884 4.49643 2.41951 
-1.60492 3.07923 1.55781 -0.953679 1.36738 0.74067 -1.50776 1.18602 2.49744 
-1.62292 0.895106 4.00697 -1.88847 4.50823 6.61942 -1.67613 3.06019 7.33898 
-1.61827 0.959905 5.43303 -1.3493 1.19328 6.65197 -0.802954 1.40491 8.0916 
-2.22403 2.92125 4.61982 -2.3263 4.48674 5.36217 -2.28431 4.45743 3.89078 
9.69271 0.493389 4.60835 9.76594 5.62907 1.82123 9.37814 5.50769 7.12677 
9.33956 0.879133 7.4155 9.18088 0.843221 1.65386 9.289 3.17662 8.34535 
8.79903 7.44544 8.09765 9.2542 7.71343 6.04229 9.28126 3.06798 0.501379 
9.12114 7.55391 3.25695 8.88593 7.4415 0.797696 9.95508 5.60277 4.65986 
10.0044 2.83077 3.1144 10.0485 2.91904 6.02045 8.71266 1.19838 8.24754 
9.49726 0.59434 6.0797 9.6655 0.56942 3.15417 8.62392 1.05362 0.666342 
9.37384 4.58094 7.86314 9.19182 5.7898 8.0113 9.1604 6.57727 7.53182 
9.59702 6.69336 6.54342 8.84644 7.38627 7.0731 9.48509 4.50849 0.891797 
9.40306 5.78539 0.718782 9.6423 6.72878 2.55661 9.18363 6.56928 1.2578 
9.08428 7.65039 1.85329 9.31871 7.70314 4.63448 9.78552 6.67569 3.96337 
9.89096 5.54821 3.18503 9.50492 6.64441 5.27428 9.92885 5.58101 6.00634 
9.79168 4.32254 2.54465 9.62338 3.07603 1.67596 9.34628 1.45194 0.866745 
9.48669 1.40702 2.37482 9.54303 1.24509 3.94501 9.97813 4.38439 6.66759 
9.40122 2.99641 7.22048 9.64945 1.19206 5.39824 9.62537 1.33286 6.68601 
9.182 1.66616 7.82486 9.92523 2.88192 4.61679 9.89817 4.2748 5.30631 
10.1906 4.31953 3.94014 3.75715 -1.6435 1.43551 3.81965 -1.54744 7.37987 
8.7692 -0.913735 4.67386 8.5371 -0.381324 7.58111 8.41962 -0.41302 1.47803 
6.35549 -0.519881 8.4856 1.26511 -0.178639 8.25939 1.05303 -1.12372 6.06925 
6.35411 -0.704961 0.239481 0.964088 -1.40102 3.18818 1.23541 -0.491565 0.336897 
3.81866 -2.12929 4.76038 6.39806 -1.70706 3.07787 6.43051 -1.63546 6.13489 
8.14043 0.446366 8.4382 8.63499 -0.648664 6.2164 8.63997 -0.797916 3.09978 
8.22977 0.212256 0.342009 5.07565 -0.836818 8.22094 3.72316 -0.774304 8.27264 
2.5612 -0.864264 7.76035 2.46472 -1.51234 6.73782 1.18765 -0.820298 7.37838 
5.13942 -1.16726 0.488156 3.68986 -1.06677 0.194275 2.42678 -1.6061 2.36451 
2.53279 -1.09717 0.988691 1.15795 -0.955077 1.62043 1.06734 -1.40175 4.70329 
2.46093 -1.92469 3.92784 3.84541 -1.99508 3.22785 2.41803 -1.8608 5.4346 
3.81359 -1.92038 6.12704 5.086 -1.89692 2.40668 6.32887 -1.30759 1.4347 
7.798 -0.563109 0.584506 8.03449 -1.16281 2.21515 8.07806 -1.34027 3.87482 
5.16667 -1.70906 6.67009 6.47155 -1.16898 7.49293 8.13901 -1.14248 5.48622 
7.96502 -0.799203 6.84704 7.68658 -0.157981 8.04194 6.50543 -1.84925 4.66051 
5.12367 -1.9643 5.41444 5.15254 -2.06673 3.99806 3.64058 9.94695 1.7232 
3.64203 9.47637 7.27961 8.2443 9.09265 4.70462 7.82847 8.59571 7.25943 
8.00692 8.74261 1.73516 6.30374 9.05941 8.42958 1.43241 8.559 8.07307 
1.00637 9.32605 6.07753 6.32405 8.98887 0.520528 0.901009 9.41983 3.17979 
1.33108 8.74457 0.662793 3.59813 9.92234 4.72317 6.35279 9.82037 3.20428 
6.51106 9.7476 6.07563 7.81145 8.03457 8.04708 8.12567 8.91808 5.98866 
8.16864 9.04847 3.13221 8.02664 8.4591 0.654554 4.96402 9.2506 8.19503 
3.65568 9.03651 8.17783 2.52286 9.25429 7.90334 2.323 9.58022 6.62347 
1.27973 9.02204 7.30676 5.03737 9.60219 0.669148 3.62457 9.21781 0.559055 
2.26884 9.59169 2.56337 2.44196 9.47999 1.01831 1.04286 9.32112 1.77953 
0.91305 9.24324 4.70424 2.17621 10.0104 3.96925 3.69961 10.0868 3.1271 
2.20716 9.84664 5.3774 3.67048 10.0122 6.11131 5.11273 9.70965 2.42677 
6.3732 9.57427 1.63539 7.54984 9.05988 0.838861 7.57158 9.25855 2.44446 
7.71524 9.46113 3.94114 5.18012 9.64854 6.77995 6.21325 9.18921 7.25291 
7.68936 9.43274 5.32898 7.60154 9.22723 6.62416 7.44285 8.82482 7.90085 
6.36255 9.62505 4.66544 5.09171 10.0023 5.37495 5.02475 10.0867 3.94245 
1.66115 3.55803 -2.09533 7.32429 3.65095 -1.84241 4.88987 8.39091 -1.27252 
7.41954 8.01593 -0.73592 1.90038 7.94506 -0.777426 8.17926 6.1425 -0.773417 
8.2692 1.50083 -0.644361 6.14337 1.11289 -1.40955 0.53951 6.1208 -1.19556 
3.42568 1.05901 -1.52377 0.731488 1.23384 -0.806251 4.76316 3.64492 -2.50025 
3.2792 6.25846 -2.21515 6.17562 6.35385 -2.07485 8.13893 7.82748 -0.138787 
6.31654 8.05816 -0.964907 3.38023 8.13252 -0.958166 0.681834 7.98803 -0.470317 
8.15325 4.92221 -1.33521 8.37371 3.51056 -1.33253 7.77779 2.40694 -1.18704 
6.71042 2.32898 -1.91199 7.3517 1.10954 -1.20679 0.694942 4.89456 -1.47097 
0.509763 3.50196 -1.46487 2.55064 2.19598 -2.08679 1.31996 2.42444 -1.3912 
1.84378 1.06367 -1.37205 4.89063 0.874908 -1.81357 4.03217 2.21684 -2.27832 
3.31517 3.6373 -2.40186 5.4641 2.27517 -2.20241 6.12707 3.64063 -2.29762 
2.58915 4.93186 -2.2369 1.70671 6.22574 -1.7585 1.15077 7.49331 -1.02538 
2.56775 7.71852 -1.57871 4.1276 7.89178 -1.77721 6.66664 5.02674 -2.08238 
7.45048 6.26494 -1.64466 5.55136 7.86431 -1.73738 6.85623 7.58729 -1.33345 
8.10007 7.4027 -0.7106 4.82418 6.2335 -2.19589 5.47391 4.9617 -2.49076 
4.06595 5.02658 -2.56027 1.85768 3.69316 10.0593 7.23356 3.59168 9.63311 
4.96534 7.94423 9.3887 7.3594 7.78446 9.26433 2.00775 7.71232 8.97216 
8.13465 6.0031 9.2732 8.02072 1.59884 8.93884 6.15242 1.20709 9.69354 
0.841504 6.12603 9.48367 3.46266 1.23031 9.64268 0.885652 1.48461 9.15555 
4.78598 3.74025 10.2525 3.30149 6.09988 9.86778 6.13956 6.26969 10.0366 
8.15061 7.71227 8.77251 6.16008 7.8952 9.52971 3.38908 7.91946 9.13148 
1.10106 7.68339 8.80034 7.94767 4.92588 9.3322 7.96467 3.55445 9.30765 
7.74347 2.47703 9.56468 6.59021 2.434 9.72351 7.18264 1.45714 9.22908 
0.846615 4.77053 9.60111 0.869972 3.52858 9.32152 2.71361 2.43002 9.89875 
1.41034 2.53687 9.6435 2.00593 1.29469 9.50713 4.8499 1.08941 9.65058 
4.10811 2.33735 10.1919 3.38653 3.66388 10.0591 5.53122 2.3954 9.97718 
6.21695 3.75512 10.3298 2.65702 4.98529 9.94203 1.99923 6.14447 9.57725 
1.27542 7.20555 9.2233 2.70044 7.37145 9.64169 4.02074 7.48659 9.81197 
6.70204 5.02522 9.97875 7.16237 6.1612 9.46879 5.47023 7.32287 9.59061 
6.69705 7.23789 9.39432 7.72222 7.07345 8.99034 4.76957 6.27722 10.0464 
5.43225 4.99998 10.1073 4.00803 5.01141 10.3047 
POLYGONS 709 2124
OFFSETS vtktypeint64
0 3 6 9 12 15 18 21 24 
27 30 33 36 39 42 45 48 51 
54 57 60 63 66 69 72 75 78 
81 84 87 90 93 96 99 102 105 
108 111 114 117 120 123 126 129 132 
135 138 141 144 147 150 153 156 159 
162 165 168 171 174 177 180 183 186 
189 192 195 198 201 204 207 210 213 
216 219 222 225 228 231 234 237 240 
243 246 249 252 255 258 261 264 267 
270 273 276 279 282 285 288 291 294 
297 300 303 306 309 312 315 318 321 
324 327 330 333 336 339 342 345 348 
351 354 357 360 363 366 369 372 375 
378 381 384 387 390 393 396 399 402 
405 408 411 414 417 420 423 426 429 
432 435 438 441 444 447 450 453 456 
459 462 465 468 471 474 477 480 483 
486 489 492 495 498 501 504 507 510 
513 516 519 522 525 528 531 534 537 
540 543 546 549 552 555 558 561 564 
567 570 573 576 579 582 585 588 591 
594 597 600 603 606 609 612 615 618 
621 624 627 630 633 636 639 642 645 
648 651 654 657 660 663 666 669 672 
675 678 681 684 687 690 693 696 699 
[...]
CELL_DATA 708
SCALARS scalars double
LOOKUP_TABLE default
-5.7543283581 -8.9007224149 -3.4514968873 -8.3771255769 -5.1919584675 -8.9408835457 -6.9806718185 -5.784495323 -9.4144342869 
-5.7384335028 -8.8148125918 -5.5933170842 -8.5677335845 -4.8673650998 0.44758596939 -0.18687920851 -1.0227190593 -1.8112829041 
2.5136377625 1.6117080289 3.3715200817 3.7606537491 6.5199159779 3.8116522364 6.1161745938 6.5037676201 6.4992823972 
3.5714163163 3.577995685 3.3242299851 5.3706379188 3.9523189399 6.2744154705 -0.20535376353 -0.95067067528 2.3748488992 
-1.5424912043 -0.87104947456 2.7466263301 4.3824440448 4.6781118254 6.2776839046 5.1507311625 7.8736112962 5.4518791792 
5.6471973158 7.5542807385 7.84584437 6.3352193884 1.9780536343 1.4008607841 2.0739447529 5.9991837466 6.500951018 
6.5791970499 6.6120070796 4.7640032013 7.4952204133 7.5997520727 4.1171750766 2.9097201841 3.4338337809 6.0744384318 
3.2542105587 2.0422554961 2.86975096 4.096676112 5.5535978049 5.9273794156 5.0859858827 -0.0098185603 -2.0549953884 
-0.92127755895 -0.89614409661 -5.470488331 -1.0946933705 -5.2178352979 -2.7716928749 -0.045329923732 -4.151104599 -5.5764531122 
-0.96334806284 -0.051691827779 -2.0289374115 -0.92525566649 -2.0321477849 0.76938229856 -0.50932647197 -1.4342156434 0.90017025365 
-2.1032760061 -5.6593694462 -4.6983707651 -1.923979498 -0.13467594774 -6.5910191175 -0.90963758785 -1.2561620086 -0.35065446187 
-0.26835430964 -2.3528837951 -2.9246186595 -1.6461779044 -2.0357066751 -2.6089812268 -2.8889888738 -1.1101207727 1.4612715584 
1.8722947341 1.4596194434 -0.20958178465 1.2566919884 1.0413909772 1.1477950487 0.47172766462 -0.73373344872 -1.6633240933 
-0.52201338712 -2.5573444841 -4.7424571221 -3.4975516612 -4.1579530659 -2.5178007381 -5.4477652365 -5.7627489966 -2.2997451551 
-5.3532754008 -1.7954626629 -1.475758741 -1.4637489131 2.7496064691 -2.5995554777 1.2697571481 0.11915791279 -0.49324993296 
2.0887361292 0.15186371238 0.86896000079 0.31715227153 3.7225104109 4.7515773579 5.1854020593 3.8384320921 3.6313709287 
3.1327349615 5.2384267281 4.1725034696 3.6184989718 1.3759737258 0.45472742371 3.2520931245 -1.3514584963 -0.8702693141 
0.19034727917 -0.17981163068 -0.19016628774 0.058575143205 3.325598289 5.2557279279 2.0894896123 2.7508148622 3.4278173422 
4.8230758798 5.0105820525 5.0040682784 3.7208136061 2.0620717962 4.0734477432 3.866336946 1.9452122347 5.0889447736 
3.6181527181 5.9983364978 6.1933625259 5.7001970787 3.9784690861 5.5838936535 1.6428354288 1.2561394226 1.5693876894 
2.8188595849 3.8453508702 0.52911165208 3.2058424721 2.8253559006 1.9844816594 5.0008465762 2.8943396366 -0.86554008536 
-0.60067137504 0.42888452139 -0.052371453811 -0.16651859442 -4.6912294721 -3.3467320755 -3.105183581 -8.3906338117 -1.6112669747 
-1.8824359181 1.95347805 -3.7584483931 -1.9505106845 -0.24549698998 -1.209473711 3.0517630658 -1.6891126558 -0.246563295 
-1.7437712253 -2.4008493781 -2.7283877569 -3.6779916443 -2.0293647848 -3.0014058925 -3.556926566 -0.025297363508 -1.2523347411 
1.0597634259 -1.0992868578 -0.34603520798 0.099470280268 1.3734169691 -1.9675429418 -2.5005536756 -1.9592704226 0.76322577077 
2.7744464764 -0.33609278717 0.083360291162 0.32161559457 2.0741737878 -0.3195598928 0.65503056379 0.60812824841 -1.550784499 
0.63362127671 -0.83018847908 -3.3199698185 -1.4642699671 -7.1060413314 -6.4537716396 -7.2855653975 -5.5351510223 -2.5876757023 
-7.1850819362 -6.6188517334 -6.795756803 -7.1984355452 -5.1566417955 -5.9898923758 -6.2876834542 -5.6188958436 -7.5643633864 
-7.4738320821 -5.1818191247 -5.8693572238 -6.9409069491 -6.3962906517 -8.0058582919 -7.8579705375 -8.9853983155 -8.2382423173 
-8.7428008144 -5.5757220241 -6.6383850804 -6.4821985767 -5.3542249343 -7.4932985716 -7.3911615036 -7.2565024833 -5.2461692264 
-8.3073759495 -8.3862882129 -9.0617566313 -7.937994563 -7.8024748711 -7.5816509213 -8.9576748985 -9.0929356561 -9.0555258851 
-9.0029690371 -7.9427034134 -7.8322826509 -5.8514898647 -7.5521696053 -7.8048354986 -8.0635538586 -8.7068544433 -8.8334369154 
-8.46051682 -7.2543282035 -5.2953371134 -8.5649428931 -8.7193232684 -9.5227007338 -8.3003410895 -8.3893525527 -9.7086116407 
-9.9152198691 -9.6975464876 -8.9560984962 -9.8188807745 -9.461369213 -9.5051737358 -9.8458324449 -8.9809123475 -9.401048033 
-9.4125826466 -9.3244301718 -8.6844275776 -9.3638661261 -9.2312605004 -4.2418603965 -7.1851059849 -9.5904116595 -4.8840138019 
-7.2016981384 -7.0237846488 -7.8109859594 -6.7336343819 -9.5205257903 -8.7808380021 -8.9829695931 -8.5699500921 -9.3076693229 
-8.2857926685 -8.6927905792 -8.9245970281 -7.5995471361 -7.8724912063 -8.5185657165 -5.9976143422 -7.0216909927 -8.7802812288 
-0.63529978663 -6.0773795898 -7.5189154518 -8.898395662 -7.6218567344 -8.9165324443 -9.328064691 -9.6030042999 -9.3067821803 
-9.7146926008 -9.5788797796 -9.8729895558 -9.7776676123 -9.7370181525 -9.9617750259 -9.8060631913 -9.9428488348 -9.9333487163 
-9.7325749637 -9.7522569047 -9.8966110539 8.8929606739 5.2457328817 8.0741407758 7.9719663765 7.327145128 6.8980659129 
9.2987568376 8.0892892784 8.0733889816 8.1676309241 8.7747126305 6.3850127816 6.6792749616 6.70033543 5.8617133934 
8.8690502195 9.124783767 4.8926827379 6.9411148971 9.2883078337 7.6780076928 9.6594476986 7.4930969266 9.0974505779 
9.1069153281 8.1268689375 8.6564185938 7.958581363 8.0978862541 8.0494875731 8.9651916895 7.7697484802 8.6256087267 
8.2641270539 9.7403745823 9.6887695088 8.3379900943 8.6736512588 8.8747904022 9.3483955169 9.4581847532 9.8303623257 
7.8726619802 9.8308670482 7.4909614165 7.8288512882 8.1253251696 8.0339051945 7.5113321017 7.41911825 8.2864677935 
8.4746597402 9.2352591685 9.7012464203 8.0426471703 8.9141202997 8.087988465 9.2401376242 8.5405630099 8.929250513 
9.5139128884 9.9466434512 9.3358538201 9.3496856077 9.9478673021 9.0209810822 9.4967895101 9.9330794926 9.1130462323 
8.7595971937 8.7695775367 9.7934929655 8.2575898814 9.8789779802 9.9571989675 6.9201184552 8.0106277734 9.3049593145 
6.4429586363 8.420782455 8.1021088099 8.5684029534 7.1708790178 9.2960082715 8.8192152605 9.3693790422 9.6327815216 
8.7101606297 9.8735129644 9.1530724978 9.198772671 7.3866423773 7.0353242596 7.5095094392 5.1844964756 3.4026145976 
5.5654332962 6.7134478894 4.4224520927 9.6675174144 8.6925803371 9.4318339883 8.383255733 9.7534996993 9.7385305957 
9.9095445456 9.6907004504 9.081322843 9.9766545169 9.6360676225 9.6937718035 9.9329521135 9.7257679613 9.6245278689 
9.9480363949 9.567900274 9.6788060902 9.5121713891 6.0481521342 5.774378636 5.5558326377 3.9350352119 7.1436548583 
7.016964529 5.8380141475 6.0695529582 3.6119002467 5.4425621593 4.529706648 6.4541894145 4.6328037565 9.0594725093 
3.363145338 0.67539429145 1.311775453 2.5430404944 2.975171844 -1.4884655042 -0.14776424664 -2.1757711821 -1.7414299186 
-4.3573362876 -1.7226204691 -4.3309722026 -5.2865021473 -5.6147328533 -5.705214263 -1.1418875194 -3.1927393437 -0.73656292509 
-4.2705368768 -3.7676409395 2.6454972693 3.360778495 0.60216456157 1.1895927976 -0.77670613048 0.89911233809 -3.3793039042 
-4.9362945207 -1.9234537411 -2.081694201 -5.547445585 -6.5087533335 -2.3006334599 -5.8128068009 -6.3293973518 -5.5986386628 
-2.7797115154 -3.7939615367 -3.0812165648 0.20822000912 -5.0925397811 -5.3096822061 -4.6754794219 -5.0433362985 -5.9903115464 
-7.0590243283 -1.2060599135 -1.1980281532 -1.4828577346 -4.5848087841 -1.3876393758 -1.1548781227 -1.7866458054 -1.8294348941 
-3.8059462528 -4.4533304902 -2.9070775115 1.576232592 1.4324840824 1.6031192987 0.85592233507 5.8790983655 6.4121425415 
3.3023832498 1.3910062503 6.8405047831 6.7316598085 9.0232601989 8.0640678816 2.691110673 2.9947262238 3.2775597134 
0.60634587807 1.2558815024 2.5914111778 0.30190482151 3.3760513396 6.117840466 4.9832208932 7.8629693971 0.79782389289 
5.7428428822 4.6823064541 5.8040093284 5.7204459736 0.79935998629 3.5133038658 3.9333050015 6.8479281943 2.4310401569 
2.5112311767 2.572768222 1.2209209311 0.068232277547 -0.71887441436 0.21271014351 1.3030987719 -0.77120766234 0.22482930061 
0.043570213588 -0.18948546549 2.7948394307 2.5612079027 2.5415151391 3.3874166793 9.2522776602 3.9345252329 8.1600033607 
4.3796686799 3.9958410162 9.291135339 4.0828161684 -0.30507669274 3.0583662091 -0.65766321626 3.4346521217 5.4966727494 
2.3328693137 5.5546847649 -0.1132337297 -0.051123913822 -0.012446332166 -1.0573434741 -0.77732907183 0.85295187202 0.01564296615 
-4.638765169 -1.7852500637 -3.7816370711 -3.2464119334 -3.1300148457 -3.7838351805 -3.3792484936 -2.0750722505 1.3153371678 
-2.0776503381 -0.041017036323 -2.3113833629 2.4787647048 3.983434873 -1.9107622932 0.68642184619 1.5845558602 -2.1714125897 
-2.5955767413 -2.6758039597 -2.574014702 -2.0303990008 -4.6733012436 -5.0573622088 -2.9131778843 -4.8426078098 -5.5731882623 
-5.1554851686 -2.6620681903 -0.60728972689 1.2837974424 0.0050212509322 -4.692272841 -5.80793801 -6.0246877429 -3.3048249064 
-4.2243073958 -5.0903930778 -1.2763322815 0.23977395722 -0.14444707124 -1.0755567389 -2.2693422388 -2.2786813505 -3.5142433894 
-1.1625194102 -2.3739215242 -4.2135282693 -3.1465011853 2.1362821931 0.85727166144 1.8426595896 1.8714962588 1.0158542274 
1.9959886724 1.1047027184 6.2478272117 4.5492711569 3.8964577165 7.6685128811 7.136569513 0.71629586367 2.6466042589 
1.1720373582 -0.44526130749 1.827851112 0.18914174059 1.9947659548 4.7436332178 4.636317624 5.0219368356 -0.78605279372 
4.1479648846 4.0489735949 -1.8544531748 0.30356858389 -3.4806597958 3.3275052598 2.6878200072 2.2961731437 4.3566022325 
3.9463989212 1.0863290568 2.9155237017 -0.0071364698389 0.11380579388 1.4210486149 2.3194954849 2.1153198303 -1.196509541 
0.89255004675 -0.56879624088 0.43565858837 2.8321414184 0.51441624085 1.1806445965 
