# vtk DataFile Version 5.1
vtk output
ASCII
DATASET POLYDATA
POINTS 356 float
0.322409 0.341179 -0.00672626 0.499538 0.599133 8.58903 0.505572 8.2323 0.0359192 
0.799423 8.08401 8.47198 8.56679 0.737356 0.179934 8.20029 0.999934 8.39822 
8.31109 7.95628 0.324127 8.14917 7.71393 8.28667 -0.164476 0.0199668 1.15821 
-0.538609 -0.11022 2.41672 -0.78265 -0.295759 3.98126 -0.72311 -0.255798 5.35795 
-0.515108 0.0686173 6.67854 -0.0832533 0.276413 7.65642 -0.0814362 1.23952 0.0294505 
-0.113386 2.34059 -0.771278 -0.272454 3.90531 -0.519992 -0.451629 5.50813 -0.561807 
-0.341558 6.73292 -0.395614 0.350303 7.50951 -0.180805 0.282576 8.43765 1.21055 
-0.093353 8.62121 2.52276 -0.294426 8.8152 3.98501 -0.195565 8.63124 5.43183 
0.110044 8.41197 6.59504 0.416606 8.3331 7.74774 0.102057 1.38075 8.59635 
-0.00488657 2.52894 9.14728 -0.267133 3.81021 9.06659 -0.0724667 5.51988 8.88039 
0.105061 6.57448 8.59409 0.516734 7.54594 8.8652 8.83981 0.270503 0.805637 
8.92332 -0.00221506 2.30293 9.21952 -0.177635 3.90612 9.09795 -0.112675 5.40985 
8.99852 0.0870377 6.7922 8.83657 0.522635 7.85155 8.84781 1.33773 0.0230451 
8.56281 2.55009 -0.407576 8.75113 3.90499 -0.308007 8.96578 5.49017 -0.287178 
8.89912 6.6427 -0.00407477 8.44824 7.40788 -0.00392693 8.5844 8.42041 1.10564 
8.74652 8.67116 2.46189 8.78748 8.7861 3.91557 8.47715 8.61966 5.35216 
8.41797 8.33438 6.5585 8.3204 8.19616 7.66655 8.5554 1.67463 8.36904 
8.48437 2.54001 8.81952 8.66222 3.9844 8.76878 8.55842 5.38937 8.6098 
8.50649 6.42511 8.40549 8.23711 7.3057 8.48174 1.37223 0.421741 -0.365998 
2.50933 -0.409525 -0.47697 4.13714 -0.16937 -0.774832 5.61983 -0.108222 -0.878324 
6.88231 0.00335537 -0.739173 7.90067 0.380181 -0.250334 1.47496 0.653097 8.74456 
2.52811 0.0131083 9.03927 4.08088 -0.0489577 9.09196 5.65834 0.276797 8.90199 
6.80654 0.438305 8.99729 7.70522 0.736971 8.74905 1.33418 8.30567 -0.406755 
2.50685 8.81526 -0.508008 4.19175 9.00255 -0.822805 5.62675 8.78415 -0.79298 
6.79179 8.45391 -0.52157 7.8116 8.31751 -0.130699 1.45886 8.22462 9.06895 
2.54576 8.57177 8.99735 4.14568 8.61426 9.24416 5.56734 8.43868 9.081 
6.76994 8.16337 8.97343 7.66743 7.97009 8.74836 -1.60123 0.0904955 4.71355 
-1.72387 5.81845 1.65375 -1.44886 5.70503 7.20291 -1.02862 0.536683 7.49829 
-1.14073 0.437752 1.56029 -0.773859 3.09112 8.22117 0.0580253 7.48906 8.07521 
-1.0829 7.78078 6.11459 -1.08025 3.09604 0.205346 -1.06831 7.8493 3.19375 
-0.153672 7.5725 0.505022 -2.12903 5.72894 4.69184 -2.02409 3.03308 3.13389 
-1.92872 3.01688 6.017 -0.22163 0.708332 8.45485 -1.44722 0.126593 6.21051 
-1.43759 0.084641 3.15583 -0.441706 0.50427 0.238144 -1.12334 4.51676 8.1794 
-0.912066 5.83827 8.16703 -0.828234 6.71628 7.59224 -1.38299 6.77284 6.58872 
-0.514141 7.68614 7.20792 -1.41444 4.62355 0.616758 -0.956216 5.86356 0.556082 
-1.48438 6.84983 2.5111 -1.07543 6.84848 1.11087 -0.720713 7.71541 1.75941 
-1.06542 7.79095 4.75742 -1.88129 6.95917 3.97814 -2.02251 5.75126 3.18725 
-1.62004 6.81531 5.35808 -1.97874 5.74843 6.0453 -2.05771 4.47378 2.4023 
-1.77908 3.05674 1.50505 -0.794916 1.37884 0.829168 -1.50195 1.17357 2.46068 
-1.76218 0.945675 3.9459 -1.83842 4.51205 6.58503 -1.72 3.08804 7.3319 
-1.53649 0.907889 5.35205 -1.35626 1.22823 6.663 -0.802407 1.47767 8.08271 
-2.27529 2.92525 4.6574 -2.32993 4.48704 5.33518 -2.24495 4.47257 3.91292 
9.65211 0.447699 4.66773 9.70321 5.61862 1.84033 9.37087 5.49919 7.12914 
9.32139 0.884373 7.37463 9.35936 0.714209 1.69687 9.19909 3.21679 8.22371 
8.62991 7.2166 7.9619 9.31406 7.62598 5.99541 9.38439 2.98849 0.435906 
9.10235 7.61381 3.22324 8.63129 7.36101 0.874554 10.0546 5.59825 4.65468 
9.84042 2.86139 3.09942 9.83543 2.93077 6.04195 8.68385 1.12181 8.24139 
9.74992 0.566279 6.15501 9.64691 0.568274 2.92438 8.81389 1.08555 0.572565 
9.33283 4.53633 7.76358 9.32916 5.81333 8.12066 9.20218 6.59632 7.50079 
9.56045 6.68507 6.53158 8.8391 7.49122 7.14508 9.57457 4.48705 0.719123 
9.30203 5.73258 0.803454 9.54408 6.64109 2.58976 9.3967 6.6956 1.2003 
9.09444 7.62944 1.86619 9.40059 7.78105 4.65947 9.83421 6.72042 3.92691 
9.75342 5.50205 3.22879 9.48951 6.61055 5.22421 9.95601 5.58467 5.98162 
9.99254 4.38044 2.47771 9.45195 3.07317 1.77088 9.23226 1.52274 0.91891 
9.45479 1.46776 2.40127 9.60182 1.20465 3.98931 9.95419 4.38881 6.60621 
9.60927 2.92883 7.26381 9.52452 1.20401 5.31107 9.44439 1.34974 6.64056 
9.07187 1.65523 7.86941 10.0264 2.87528 4.65494 9.87949 4.25724 5.274 
9.97711 4.27572 3.90648 3.76353 -1.6748 1.43407 3.76575 -1.45484 7.28642 
8.79756 -0.955954 4.68986 8.44971 -0.272536 7.58618 8.43196 -0.485425 1.6356 
6.42565 -0.630228 8.56905 1.3451 -0.180788 8.25718 0.945469 -1.34625 6.08912 
6.25805 -0.656 0.274159 1.01491 -1.34217 3.19261 1.27749 -0.515504 0.315626 
3.80061 -2.14638 4.76506 6.38665 -1.77941 3.03579 6.4445 -1.78996 6.18369 
8.18711 0.525941 8.2608 8.76505 -0.799547 6.24215 8.83226 -1.03448 2.93996 
8.06044 0.268259 0.335511 5.06553 -0.94553 8.31507 3.77095 -0.747601 8.14047 
2.52804 -0.91514 7.77568 2.46629 -1.46753 6.66778 1.18051 -0.685687 7.2361 
5.09726 -1.20307 0.345651 3.70605 -1.05374 0.224738 2.43491 -1.70594 2.3515 
2.49357 -1.19709 0.987507 1.1656 -0.92852 1.62105 1.10604 -1.28105 4.70211 
2.48161 -1.85579 3.95067 3.8395 -1.96529 3.24804 2.42969 -1.86585 5.40114 
3.83893 -1.94012 6.08192 5.03434 -1.91885 2.39382 6.44071 -1.44267 1.36316 
7.80805 -0.587606 0.613883 7.86331 -1.00473 2.25053 7.97915 -1.20133 3.90938 
5.1467 -1.82167 6.69995 6.43403 -1.01517 7.38266 8.05956 -1.04473 5.44603 
7.96406 -0.77165 6.83274 7.67746 -0.134776 8.05118 6.49232 -1.87312 4.6892 
5.08377 -1.9669 5.3892 5.20282 -2.22215 3.98764 3.63919 9.8456 1.65651 
3.61483 9.59591 7.3063 8.168 8.99333 4.47924 8.108 8.78435 7.31953 
7.95423 8.61195 1.83828 6.20583 8.78879 8.3278 1.43097 8.49933 8.03118 
0.947483 9.46552 6.11669 6.33318 9.10551 0.43364 0.960582 9.2884 3.23947 
1.3344 8.63897 0.667016 3.61123 10.0056 4.65814 6.27769 9.52651 3.14176 
6.48641 9.67883 6.02868 7.77168 8.10967 7.96216 8.27007 9.18628 6.13036 
8.05418 8.90613 3.20857 7.96115 8.36934 0.654078 4.99002 9.15606 8.14478 
3.66044 9.03371 8.14309 2.50937 9.20739 7.94265 2.3405 9.41136 6.54175 
1.20397 9.02117 7.3032 5.03235 9.63163 0.734243 3.62916 9.23618 0.510714 
2.28134 9.69419 2.50897 2.39672 9.41252 1.07155 1.07086 9.27871 1.76557 
0.923899 9.29192 4.67213 2.16814 9.98462 3.93366 3.64949 9.88514 3.21061 
2.23939 9.83623 5.43496 3.66929 9.98142 6.17262 5.0791 9.88606 2.43308 
6.40359 9.56631 1.60942 7.57408 8.99661 0.86045 7.59191 9.42529 2.41497 
7.64052 9.56527 3.9729 5.16958 9.5914 6.70538 6.25606 9.35611 7.34642 
7.66832 9.2214 5.35778 7.38771 9.01635 6.55643 7.37715 8.72383 7.86248 
6.39552 9.79169 4.68331 5.01522 9.94984 5.41701 5.10554 10.1675 3.91576 
1.70098 3.50928 -2.0561 7.25108 3.62108 -1.6935 4.89015 8.23663 -1.17704 
7.56084 8.0952 -0.802875 1.84053 8.00606 -0.88495 8.18275 6.1297 -0.881538 
8.15721 1.43373 -0.595646 6.09736 1.11618 -1.39361 0.615797 6.0805 -1.17459 
3.46349 1.02364 -1.59761 0.680479 1.21179 -0.923852 4.78996 3.6567 -2.58017 
3.31828 6.17734 -2.09218 6.1278 6.29014 -2.07622 8.09077 7.74581 -0.0933651 
6.22275 8.13449 -1.05632 3.37233 8.2037 -1.06388 0.973813 7.85931 -0.344527 
8.17536 4.88694 -1.31398 8.31229 3.52771 -1.30497 7.76986 2.46512 -1.26971 
6.69175 2.26339 -1.91766 7.36477 1.1924 -1.16954 0.600078 4.83235 -1.5473 
0.476261 3.52627 -1.54916 2.57104 2.22796 -1.98851 1.30417 2.42102 -1.43206 
1.86994 1.01916 -1.42151 4.90103 0.937803 -1.67431 4.0281 2.22347 -2.26129 
3.3362 3.63523 -2.35654 5.42431 2.27506 -2.12593 6.17307 3.62295 -2.37539 
2.5724 4.9286 -2.28048 1.70804 6.2377 -1.81149 1.00639 7.45533 -1.07009 
2.53327 7.67676 -1.58586 4.10784 7.87275 -1.7686 6.69696 5.00957 -2.11816 
7.41701 6.28076 -1.64491 5.59676 7.86566 -1.77635 6.85617 7.59771 -1.26766 
7.93138 7.44381 -0.674202 4.79309 6.25491 -2.31158 5.43247 4.94158 -2.39401 
4.05574 4.99805 -2.54498 1.86496 3.6887 9.96602 7.24967 3.6465 9.71808 
4.93732 7.9367 9.41806 7.18694 7.58545 8.9415 2.02434 7.68217 9.02221 
8.18703 6.05453 9.28916 8.00586 1.5545 8.91393 6.12212 1.25788 9.65006 
0.798956 6.14718 9.56844 3.45481 1.28819 9.46017 0.947638 1.53581 9.14684 
4.78423 3.72942 10.3036 3.27816 6.09964 9.92415 6.05063 6.19267 9.80016 
7.86053 7.45927 8.51399 6.1013 7.86533 9.33569 3.39756 7.84255 9.02712 
1.1788 7.58523 8.6012 7.81043 4.87358 9.34448 8.08823 3.50148 9.36708 
7.60624 2.48078 9.36776 6.66488 2.36992 9.96837 7.14984 1.44198 9.18758 
0.848752 4.75309 9.60449 0.879009 3.53711 9.31928 2.70289 2.41735 9.94849 
1.45634 2.54535 9.57083 1.9852 1.32379 9.49077 4.85913 1.00901 9.75008 
4.10855 2.30645 10.1656 3.41406 3.641 9.91473 5.46018 2.4265 9.84021 
6.1486 3.72772 10.1013 2.63864 4.9567 10.0741 2.03431 6.11221 9.65987 
1.28589 7.24336 9.28163 2.70723 7.41219 9.68713 4.03474 7.46361 9.74438 
6.68209 5.00827 10.114 7.1422 6.13885 9.47943 5.50758 7.34744 9.75577 
6.72867 7.29688 9.50219 7.71122 7.07855 8.94052 4.76165 6.2015 9.97628 
5.40156 4.98527 9.97294 4.01471 4.99895 10.2482 
POLYGONS 709 2124
OFFSETS vtktypeint64
0 3 6 9 12 15 18 21 24 
27 30 33 36 39 42 45 48 51 
54 57 60 63 66 69 72 75 78 
81 84 87 90 93 96 99 102 105 
108 111 114 117 120 123 126 129 132 
135 138 141 144 147 150 153 156 159 
162 165 168 171 174 177 180 183 186 
189 192 195 198 201 204 207 210 213 
216 219 222 225 228 231 234 237 240 
243 246 249 252 255 258 261 264 267 
270 273 276 279 282 285 288 291 294 
297 300 303 306 309 312 315 318 321 
324 327 330 333 336 339 342 345 348 
351 354 357 360 363 366 369 372 375 
378 381 384 387 390 393 396 399 402 
405 408 411 414 417 420 423 426 429 
432 435 438 441 444 447 450 453 456 
459 462 465 468 471 474 477 480 483 
486 489 492 495 498 501 504 507 510 
513 516 519 522 525 528 531 534 537 
540 543 546 549 552 555 558 561 564 
567 570 573 576 579 582 585 588 591 
594 597 600 603 606 609 612 615 618 
621 624 627 630 633 636 639 642 645 
648 651 654 657 660 663 666 669 672 
675 678 681 684 687 690 693 696 699 
[...]
CELL_DATA 708
SCALARS scalars double
LOOKUP_TABLE default
-4.6086220713 -8.7428041346 -3.0934154657 -9.4594903415 -4.4234215789 -9.1802989132 -8.9701998376 -5.8001479188 -9.2827058658 
-5.9507257295 -8.5856349074 -4.081902148 -8.773972418 -4.1503888313 1.4392473355 1.0641060685 -1.2668889718 -1.7179439881 
3.0384064834 1.5496423235 3.2204330828 4.4779190545 4.4105476969 4.3236969845 6.2559631238 7.6282981824 7.3631129707 
4.9753454302 4.9826433692 2.2682354369 3.5318165868 3.4361286379 4.7403890432 0.45311235327 -3.2241970571 2.6705873533 
0.43131465474 -0.99470333646 2.8601880625 4.1508444389 5.1143900763 5.828609851 5.1626846202 7.0316868958 6.4274393709 
5.9023037447 6.9666822227 6.7844452429 5.8040569011 2.1458153121 1.419456572 1.3978142405 3.3331687903 6.5225962588 
7.2058382293 7.9256179827 5.1674773117 6.1286946192 6.5862036227 3.5058602552 1.5926522073 2.843766139 3.6059802434 
3.7281422237 2.8784494674 4.185155884 3.0757836117 4.9066893261 6.8699442385 5.7755045731 0.47102384103 -0.64426084435 
-0.98829774842 0.28143741126 -4.2733845633 -1.0789832762 -4.1386234798 -1.9767815309 1.6288029978 -4.4632157772 -5.5387979933 
-1.825643471 0.31338770922 -2.1722926574 -3.0515096787 -3.3297578479 0.85820927417 0.00090094621045 -1.4492679174 1.3725341277 
-2.3679606899 -5.262035673 -5.8030867283 0.28747950065 -0.39732611377 -5.4706959869 -0.019804850806 -1.0974241627 0.52108846217 
-0.50357419681 -2.4611683369 -3.1044943096 -0.44621113807 -2.5390503586 -1.8850250445 -2.9635422141 -0.83126489899 0.79448535699 
2.1150879738 0.53615442339 -0.85342286881 1.3339882431 1.3949732617 1.0234082058 1.2880200982 -0.60850560241 -1.4348756027 
-0.090775908273 -1.6624125216 -4.364211092 -1.6187202452 -7.6770934915 -2.432153026 -6.3797822718 -5.5759587138 -2.7234571337 
-6.7544012812 -3.4409307198 -6.0541533039 -1.674402847 -1.0409964765 -3.0538560028 -0.097444831859 -2.1294581739 -0.56551119565 
1.2843111814 1.946386377 1.2611826688 0.25926681444 4.7077024083 4.336249338 4.6717082693 4.0568659293 6.0615138221 
5.1817351728 3.9572919753 3.7601512086 1.9487034501 1.5439608079 2.3067997772 5.5115172474 -0.51061211885 -2.7424447346 
2.2304950364 0.21328618713 -1.0108094783 2.2303018795 2.202483428 4.1377534224 5.5698590765 3.6079386373 2.8629656752 
1.3710066406 1.2611866661 4.0346132597 3.1774764999 6.4546184927 0.54581773768 0.67488854328 1.3259946243 3.3608207751 
5.0188428869 6.8551867932 7.0365886326 5.1470691171 3.7692378131 6.263819068 1.6906915775 0.55554860907 0.58548877931 
2.1781608424 4.5562181361 0.89223711277 3.6878495273 3.5013863569 1.1251698814 5.0085900057 2.0061791375 1.112762297 
-1.1783400035 -2.1795507911 -2.5837057316 0.701736955 -4.5144510994 -2.4179482982 -2.0641135066 -5.7942650706 -2.2053632255 
-2.3339514025 1.737350692 0.13082219902 -1.1437890236 -1.1707928554 -0.57269664887 2.5099991071 -1.4876170848 0.39826394016 
0.046448546577 -2.1002102039 -3.0523679089 -3.3851477692 3.5379194633 -2.065123921 -1.7446799121 1.4689632325 -1.3688775807 
-0.044329344945 -1.6977952915 -1.7181298042 -2.2728117029 1.1786864518 -2.3322496714 -2.0158739816 -2.6686372362 -0.61926804836 
2.3649492589 -0.96011055577 -0.29243418127 -0.98207239133 0.6178750825 2.1927022036 1.925888568 -0.97504287471 -0.28361204836 
0.44975930555 0.73475460725 -4.5848708308 -2.5187713953 -5.4991182787 -3.1836468516 -6.3598650206 -4.0223303131 -4.9954043897 
-7.0850566574 -2.076757001 -7.2689209113 -5.9349230287 -3.95735488 -7.4357342117 -6.4457196679 -5.8287299961 -7.5409203618 
-7.5766777381 -3.6385993615 -4.0072863851 -7.9674661389 -5.0265898502 -8.715720505 -8.2583077867 -8.117285978 -8.4119090174 
-7.1173228501 -7.9267569903 -7.16538067 -7.7520999662 -3.9302277281 -7.6728085962 -7.8010402784 -8.042074312 -4.8855200932 
-8.6574351073 -8.6749239158 -8.8923483477 -7.6930609242 -7.4178171374 -7.4407561498 -9.1087414548 -8.825161927 -8.9205160269 
-8.7618316648 -8.1273049138 -8.2276283856 -5.5701815727 -7.4094864727 -8.2809919992 -8.1558187958 -8.572458735 -8.7919702929 
-8.6358542886 -7.4639901661 -4.9936448963 -8.5234656152 -7.435673944 -9.5300526277 -8.7446852645 -8.7834506531 -9.8452043496 
-9.8248440901 -9.8807750736 -9.352571702 -9.7931750054 -9.1860213154 -9.3422763341 -9.7828823219 -9.2728982417 -9.3218516199 
-9.1847102347 -9.4257354607 -7.4377223449 -9.6389605845 -9.4178653834 -5.9756187054 -6.9793303822 -9.0518769862 -3.600606462 
-4.8720717178 -7.1053763908 -9.9103174109 -8.2919824855 -9.0695989785 -7.8611599045 -8.7678099191 -8.7922523997 -8.1633870016 
-9.3851956441 -8.3875610883 -8.5130683297 -7.0711271995 -7.6414406555 -9.7334566036 -4.6910761351 -5.6129736769 -8.6422425489 
-2.3010625533 -5.66556626 -8.4809873168 -7.9651175835 -8.1162302414 -9.7417354405 -8.9471264568 -9.2306199928 -8.9526893438 
-9.9205049712 -9.2568077935 -9.8622942333 -9.933702693 -9.5943141648 -9.8538674829 -9.8530080442 -9.801871018 -9.8193417174 
-9.5197112667 -9.9375142392 -9.6885085042 5.6851387597 7.3760999324 4.6935428049 2.1843142411 7.9501657067 8.5917855196 
4.0376397936 7.7010588146 9.6754008964 6.4139570022 9.7878107077 5.2411939876 7.1443673462 7.4726466967 7.7224389303 
8.2567222599 9.1807682412 7.9206063342 8.3013973062 9.1829372008 8.2921188441 9.5627704997 6.8246181609 9.2842017969 
9.6151873259 6.7499005389 7.9161107011 8.6121963418 7.3190093374 9.2637126662 8.3043761651 7.5478743779 8.5642091743 
8.7967239641 8.4530005266 8.5177982198 8.7038599459 8.8288460214 8.8800500884 9.3966314932 9.5020385779 9.5082025679 
7.6776106959 9.5760748021 8.8154536665 7.3918879309 9.2807280373 9.3153374285 7.480775313 8.5736344333 8.1693410306 
8.7987609996 9.3435492692 9.6112670674 8.7399029733 8.2950302349 6.735539442 8.9443227718 9.3336484606 8.9175129183 
9.9174268299 9.9625469733 9.7880159016 9.2866027878 9.9358426874 9.0543665363 8.8767884431 9.9272057939 9.3915167747 
8.6987923019 8.9460495252 9.8737671603 8.8934966135 9.6403383557 9.7827771286 8.193478604 8.7342819563 9.9555631808 
5.601665807 8.1910834202 7.7851785717 5.9350891894 4.8604570462 9.9488449062 9.0681548371 9.2336667182 9.4615365895 
9.667489432 8.474375996 9.5544847447 8.4430934764 7.3919839247 8.0522054776 9.8268468174 7.9720151756 3.8599855333 
9.7241552512 7.6088138217 5.523322459 8.3440308687 8.4431686351 8.8992495669 7.459014658 9.2123373511 9.814437878 
9.2814328476 9.6319995828 9.3704643384 9.9938723222 9.5567088247 9.0816245338 9.8503328754 9.995748595 9.7779767243 
9.8928611656 9.0850812262 9.8580279099 9.6954169695 3.8032307868 3.3172989213 6.3852908702 6.0362806497 7.206628559 
4.8588813762 8.8056666065 6.080960982 4.7546101872 6.3023382979 6.0636579125 5.598563436 3.4185550587 2.6431335531 
4.2822721388 0.28626856133 0.87731928271 2.0936715793 2.3071229321 -1.0136827798 -1.0310853483 -0.75825017441 -2.5495458911 
-4.8451186985 -2.3355144628 -3.99352377 -4.6898395441 -3.7575228161 -3.7675284863 -1.1178167854 -1.9511982771 -1.5566526561 
-3.7737533447 -4.4529516873 1.6062850704 2.1199524742 0.3749958467 2.4036101188 -0.97836937613 0.76014466324 -3.3063428426 
-3.7396268776 -1.6966216556 -1.7548416681 -5.8959088751 -7.2794522033 -3.1195923605 -6.7298751985 -6.2129251625 -5.7650179519 
-1.6624760764 -3.6141104676 -3.7090485827 0.13002895212 -4.2594237157 -4.6047960165 -4.2897731687 -4.1514207404 -5.9555479598 
-6.1800327988 -1.640304271 -1.3886934319 -1.5483724222 -4.7011491088 -2.5266735796 -0.80382930485 -2.6194263781 -2.6777046706 
-4.0011519016 -4.5559700582 -3.5426634185 0.6754598052 2.5132966522 2.3888101013 1.017280213 6.5520128168 6.5508911047 
2.4905228493 7.3343288853 6.8760755824 6.0315189586 8.1464782879 6.9756288316 2.407066629 2.0946279275 3.3519071367 
-0.80636050111 1.700490695 2.2778389772 0.53650657892 3.0236371677 6.5127604442 6.5799015479 6.9768660387 2.3937828164 
3.7548231329 1.0946451428 5.0903845659 5.7414664446 2.4022690876 3.7748568402 4.250493416 8.5097915369 2.3710829443 
2.5453414369 3.1687212833 1.2300664197 -0.45123124019 0.69051212908 1.0238172752 2.5165038822 -0.56751424847 -0.46725154827 
-0.44511781997 0.87338816953 2.6781829191 1.4310610427 1.1693906218 2.1584480697 -0.89695911543 4.9888398463 5.4587910932 
5.2406364335 4.1044471329 1.4177000823 3.6921296846 -1.3249294436 3.5762161702 -0.13090970608 2.2191385642 4.5090422385 
-2.7394459534 1.2317328379 0.95683513609 1.4449217647 1.2130112286 -2.1179432998 -0.68761103978 1.3277772515 -0.84957514278 
-2.9880062376 -4.3701362124 -3.658200439 -3.0930216129 -2.8675655309 -3.7413647038 -3.0065559258 -2.8052730545 -1.6743939623 
-1.7776883837 -2.474080473 -3.4042494542 2.9291005426 4.4543032731 -2.0798614418 -0.017997229194 1.5122061584 -2.2658939562 
-2.1267228048 -3.9148108397 -2.0973090275 -1.9217830682 -2.8426918353 -5.5682703759 -2.5862581307 -4.6754133693 -4.5783914955 
-3.2125030939 -2.5599021814 -0.98725186745 0.80733182433 0.18344386133 -4.2157295142 -6.4991646028 -6.1233081672 -4.846782302 
-3.6672480017 -6.2660677504 0.081993989215 0.37422579423 1.1034732563 -2.2184108677 -2.6595174081 0.33426516459 -1.3860068816 
-2.0877810678 -1.0491229683 -4.2916908171 -1.6448115177 0.7740852489 0.23164263842 2.3643265988 1.9682944972 -0.37128902838 
1.655104026 1.5697546721 8.9460795991 5.0799552285 3.8490804891 8.6178951988 7.7430647035 0.86309825743 2.7873334115 
1.282039206 -0.056453948193 3.8172209532 -0.10771254716 2.150337635 1.3451480549 5.1412319424 3.9527751081 4.7045065115 
4.9854258788 1.373192267 5.2359877342 4.6140404808 6.4706885068 3.9621597504 0.82898660701 1.6816886077 5.2191053226 
1.0154324983 1.552121755 1.8458653327 1.989271656 -1.4102556718 1.8496107132 0.35970507183 1.9961195911 -1.1828078453 
-1.0286411604 -1.8743545076 1.596360644 2.5039270801 0.68587431935 0.99736793603 
