# vtk DataFile Version 5.1
vtk output
ASCII
DATASET POLYDATA
POINTS 356 float
0.325622 0.251467 -0.0422838 0.469146 0.607114 8.2714 0.569498 8.0009 0.0574213 
0.730907 7.82142 8.28383 8.36162 0.750782 0.0808524 8.15233 0.990887 8.26419 
8.18746 7.75849 0.338596 7.8933 7.54508 8.08096 -0.414857 -0.114688 0.997824 
-0.817252 -0.264339 2.27702 -0.889035 -0.393814 3.79483 -0.975145 -0.327196 5.31879 
-0.729125 -0.216719 6.68879 -0.191302 0.132862 7.73128 -0.308714 1.02877 -0.313186 
-0.0711154 2.31058 -0.747156 -0.460689 3.7098 -0.881419 -0.566864 5.34231 -0.635788 
-0.312451 6.55077 -0.337914 0.342967 7.49784 -0.374687 0.124737 8.41771 1.01526 
-0.164094 8.36148 2.4622 -0.33792 8.62892 3.91879 -0.167627 8.45635 5.32552 
-0.0918066 8.43402 6.52885 0.581253 8.0245 7.47133 0.0394849 1.31884 8.53551 
0.0943451 2.48577 8.86416 -0.0304911 3.79981 8.7311 -0.291526 5.33278 8.84344 
-0.0833192 6.51588 8.58769 0.672676 7.26613 8.4654 8.54464 0.303596 0.920208 
8.81448 0.0761272 2.22116 9.08917 -0.285652 3.75779 9.02358 -0.283172 5.26456 
8.99504 0.0635539 6.72981 8.6122 0.523562 7.72755 8.46408 1.33125 0.197882 
8.66242 2.35772 -0.547167 8.92776 3.77994 -0.533085 8.6678 5.25114 -0.262841 
8.75052 6.51451 0.0144389 8.16663 7.26352 0.043511 8.20056 8.1221 1.18795 
8.37612 8.31973 2.38796 8.45625 8.48794 3.86911 8.49934 8.506 5.30276 
8.26099 8.30779 6.49965 8.21444 8.01271 7.63698 8.2452 1.57625 8.16939 
8.40552 2.55158 8.80762 8.67384 3.87715 8.72749 8.51635 5.20837 8.55237 
8.56049 6.41352 8.32579 7.93646 7.09318 8.22676 1.27193 0.186217 -0.642213 
2.47238 -0.414157 -0.530482 4.09895 -0.420794 -0.943031 5.44734 -0.0872994 -0.784446 
6.71025 0.0197993 -0.879152 7.67891 0.36688 -0.293635 1.32601 0.494414 8.85649 
2.59884 0.147656 8.78885 4.04123 0.0905855 8.88428 5.54257 0.121103 8.96861 
6.73943 0.297443 8.93012 7.41305 0.747809 8.37954 1.30758 8.17106 -0.581807 
2.38397 8.62393 -0.666185 4.10523 8.74598 -0.961582 5.49885 8.58928 -0.941794 
6.74808 8.47768 -0.781261 7.5098 7.99255 -0.00397315 1.46447 7.75448 8.66289 
2.50424 8.20066 8.69646 4.09205 8.11664 8.86131 5.38424 8.06648 8.83224 
6.42052 7.82151 8.74366 7.22832 7.64666 8.24707 -1.62191 -0.00846753 4.53464 
-1.94514 5.73159 1.50376 -1.40957 5.68398 7.11064 -0.786628 0.654463 7.29186 
-1.01988 0.499906 1.52928 -1.05889 3.0985 8.39225 -0.0667967 7.39982 7.98356 
-0.995165 7.60439 5.90837 -1.26968 2.99749 0.074233 -1.17032 7.66214 3.19978 
-0.266669 7.34779 0.46255 -2.28529 5.67207 4.60633 -2.27036 2.82134 3.03763 
-2.0909 2.92254 5.87229 -0.248059 0.802912 8.30416 -1.24125 0.323241 5.87793 
-1.34312 0.179378 3.1993 -0.190263 0.665728 0.393211 -1.12488 4.52678 8.01206 
-0.804697 5.67643 7.91597 -0.864239 6.61559 7.53961 -1.47314 6.72619 6.44976 
-0.546523 7.49027 7.09836 -1.422 4.46676 0.445179 -1.29797 5.7982 0.353632 
-1.72721 6.78769 2.43164 -1.15326 6.6716 1.03954 -0.918885 7.61864 1.71742 
-1.23349 7.7445 4.58875 -1.79817 6.65614 3.87362 -2.11521 5.68505 3.05915 
-1.80901 6.75314 5.22897 -1.96908 5.61319 5.99849 -2.22265 4.44169 2.41695 
-1.85555 3.11033 1.5175 -1.09091 1.23426 0.598153 -1.66748 1.02887 2.29917 
-1.77216 0.869736 3.81443 -2.07646 4.37877 6.57853 -1.53603 2.88455 7.10341 
-1.98046 0.814077 5.33446 -1.52089 0.955182 6.66115 -0.779498 1.32292 7.83643 
-2.43692 2.89721 4.55532 -2.35731 4.39041 5.26617 -2.45046 4.39584 3.89828 
9.49513 0.443158 4.59525 9.54505 5.495 1.75573 9.55679 5.47007 7.03622 
9.12422 0.918321 7.32453 9.43253 0.727753 1.3677 8.85948 3.05056 7.94968 
8.40468 7.07714 7.73783 9.01604 7.46593 5.82352 9.00011 2.9787 0.566137 
9.20568 7.59264 3.10659 8.83475 7.35827 0.670072 9.62933 5.40776 4.49444 
9.84218 2.93261 2.93513 9.79109 2.92831 5.98149 8.68902 1.15288 8.19156 
9.45679 0.551434 5.88534 9.59872 0.437834 3.00971 8.84223 0.951095 0.359749 
9.28551 4.37021 7.74177 8.83702 5.49473 7.77621 9.01618 6.4501 7.50445 
9.14897 6.52895 6.39573 8.71651 7.33172 6.9952 9.38126 4.37617 0.72805 
9.36964 5.68859 0.520078 9.3185 6.57477 2.45222 9.16444 6.51003 1.34829 
8.82346 7.42883 1.84305 9.00212 7.59894 4.53054 9.52082 6.56066 3.8405 
9.76026 5.5516 3.04476 9.60023 6.58373 5.22321 9.73307 5.50643 5.91485 
9.68618 4.27125 2.33977 9.68323 2.9898 1.65078 9.16221 1.57061 0.803117 
9.2345 1.30196 2.36479 9.66565 1.22438 3.75769 9.44176 4.20283 6.39694 
9.55255 3.02757 7.08146 9.58044 1.24948 5.22826 9.2687 1.27529 6.53736 
9.06098 1.64284 7.80322 9.5441 2.63342 4.49106 10.021 4.22042 5.1721 
9.972 4.25067 3.76428 3.59804 -1.87203 1.32654 3.73111 -1.33841 7.19097 
8.67129 -0.946445 4.54132 8.31417 -0.301636 7.42815 8.4622 -0.617076 1.3673 
6.22558 -0.302529 8.07786 1.30272 -0.285601 8.12946 0.972047 -1.33312 5.93839 
6.29078 -0.765827 0.0844012 0.916451 -1.39291 3.04524 1.23663 -0.409107 0.335111 
3.73562 -2.18304 4.63499 6.29427 -1.88071 2.98408 6.3223 -1.69765 5.95935 
8.10349 0.32539 8.38685 8.45605 -0.65387 6.01147 8.58005 -0.978509 2.91367 
8.23315 0.060061 0.137866 4.97767 -0.991815 8.13309 3.5406 -0.862608 8.22372 
2.41671 -0.995644 7.7078 2.32552 -1.62299 6.60739 1.19293 -0.720984 7.04519 
5.00873 -1.27424 0.30726 3.6583 -0.936986 0.206254 2.36684 -1.69272 2.35582 
2.45179 -1.35805 0.833912 1.15625 -1.01909 1.5339 0.927381 -1.48359 4.59562 
2.39183 -2.06034 3.82476 3.68857 -2.21158 3.07465 2.38638 -1.94173 5.23818 
3.72065 -1.98304 6.0052 4.94066 -1.93043 2.34048 6.27066 -1.466 1.2853 
7.61218 -0.437093 0.598914 7.74379 -1.04815 2.17851 7.88126 -1.15098 3.78279 
5.03479 -1.6707 6.51954 6.33486 -1.25889 7.30906 7.9427 -1.24839 5.29109 
7.81202 -0.775066 6.6338 7.59668 -0.179404 7.87389 6.33574 -1.91843 4.59202 
4.98386 -2.1335 5.2547 4.98903 -2.24365 3.84262 3.51413 9.69113 1.56735 
3.59563 9.14489 7.19185 7.8532 8.78151 4.5853 7.69384 8.37738 7.14667 
8.02731 8.9218 1.60681 6.17077 8.80573 8.2814 1.30766 8.51779 8.10478 
0.924866 9.1127 6.03389 6.21527 8.87117 0.336244 0.900714 9.28235 3.17301 
1.27489 8.51316 0.525061 3.57117 9.7968 4.60346 6.25277 9.68453 3.06657 
6.24772 9.44495 6.01906 7.67009 8.052 7.96147 7.78613 8.69199 5.86225 
7.98827 8.8595 3.08025 7.88663 8.30892 0.551364 4.88899 9.04657 7.94824 
3.5236 9.00179 8.26693 2.43694 8.91652 7.65834 2.28732 9.41564 6.50658 
1.16234 8.73354 7.11367 4.87525 9.50086 0.619264 3.51429 9.10961 0.373497 
2.21233 9.42336 2.45296 2.32654 9.31306 0.888126 1.02581 9.17628 1.64332 
0.872474 9.21817 4.63214 2.08408 9.7911 3.85044 3.5487 9.90556 3.07701 
2.22645 9.5491 5.29576 3.59819 9.75672 6.01563 4.95712 9.66202 2.39461 
6.16126 9.46625 1.47295 7.27545 8.77021 0.835033 7.27318 8.98715 2.37854 
7.45107 9.22434 3.87346 4.92439 9.59093 6.58914 6.0708 8.9623 7.14744 
7.44019 9.37826 5.27543 7.33693 9.04011 6.58388 7.1586 8.51838 7.75271 
6.1241 9.4835 4.57079 4.94502 9.7968 5.27489 4.94778 10.0634 3.81437 
1.69557 3.45897 -2.07773 7.17772 3.542 -1.98343 4.7684 8.04388 -1.34721 
7.17993 7.79877 -0.836789 1.71493 7.87156 -1.17423 8.11488 6.02786 -0.829186 
8.09205 1.45542 -0.718267 6.00662 0.980918 -1.63632 0.425735 6.05684 -1.3781 
3.35413 0.984038 -1.71472 0.688598 1.1932 -0.983004 4.71515 3.51874 -2.73554 
3.19051 6.00404 -2.32683 6.06271 6.10323 -2.07434 8.20154 7.81006 -0.37757 
6.08134 7.79959 -1.04544 3.30657 8.00615 -1.19896 0.758989 7.80599 -0.605803 
7.95424 4.68395 -1.40427 7.92232 3.36747 -1.10082 7.61608 2.32983 -1.36751 
6.59964 2.19873 -1.98922 7.13896 1.18815 -1.10698 0.693152 4.71438 -1.70308 
0.451 3.3563 -1.72189 2.55759 2.14963 -2.19519 1.20866 2.2382 -1.74177 
1.89619 1.01912 -1.3721 4.77939 0.857952 -1.94662 3.95222 2.18441 -2.49406 
3.29059 3.54146 -2.50207 5.34524 2.25087 -2.12674 6 3.55356 -2.44893 
2.52227 4.72816 -2.6185 1.66703 5.92773 -1.8382 0.996521 7.24709 -1.10115 
2.52778 7.46229 -1.73254 4.03661 7.5927 -1.898 6.56234 4.86587 -2.1596 
7.27416 6.09937 -1.55539 5.4773 7.60277 -1.81391 6.7073 7.39442 -1.41923 
7.81643 7.26776 -0.638395 4.67345 6.09865 -2.36153 5.39358 4.87552 -2.66528 
4.00597 4.81024 -2.69884 1.88564 3.50589 9.77403 7.06659 3.5936 9.73123 
4.78815 7.77957 9.45959 7.15576 7.57943 9.06122 1.91862 7.54377 9.00534 
7.82754 5.86096 8.81426 7.87729 1.59686 8.81175 5.98212 1.29324 9.4135 
0.856809 5.85391 8.96769 3.31704 1.12748 9.59564 0.917602 1.41516 8.91182 
4.59444 3.60153 9.87691 3.22289 6.0054 9.84159 6.00971 5.98011 9.769 
7.87238 7.53175 8.69987 5.89315 7.528 9.02366 3.30991 7.62461 9.01927 
1.06279 7.39047 8.52929 7.77888 4.67282 9.38004 7.79803 3.47645 9.05284 
7.56555 2.48459 9.24564 6.43536 2.38009 9.42009 7.13424 1.40899 9.29273 
0.78571 4.66766 9.46234 0.663795 3.3961 9.62995 2.70569 2.2922 9.82186 
1.32055 2.3429 9.54247 1.94895 1.31003 9.29376 4.7892 1.08426 9.48326 
4.0053 2.32489 9.91648 3.23963 3.55098 10.0801 5.40465 2.37743 9.97688 
5.98287 3.5889 10.0806 2.60658 4.78632 9.86085 1.85721 6.00131 9.65104 
1.1348 7.04225 9.08389 2.65234 7.12347 9.30151 4.01112 7.14209 9.4824 
6.4467 4.76014 9.57531 7.06759 5.89247 9.50189 5.38916 7.10947 9.38324 
6.40855 7.10898 9.12768 7.55834 6.8731 8.89262 4.62329 6.02941 9.73698 
5.39039 4.85862 10.0509 3.98783 4.84856 10.0807 
POLYGONS 709 2124
OFFSETS vtktypeint64
0 3 6 9 12 15 18 21 24 
27 30 33 36 39 42 45 48 51 
54 57 60 63 66 69 72 75 78 
81 84 87 90 93 96 99 102 105 
108 111 114 117 120 123 126 129 132 
135 138 141 144 147 150 153 156 159 
162 165 168 171 174 177 180 183 186 
189 192 195 198 201 204 207 210 213 
216 219 222 225 228 231 234 237 240 
243 246 249 252 255 258 261 264 267 
270 273 276 279 282 285 288 291 294 
297 300 303 306 309 312 315 318 321 
324 327 330 333 336 339 342 345 348 
351 354 357 360 363 366 369 372 375 
378 381 384 387 390 393 396 399 402 
405 408 411 414 417 420 423 426 429 
432 435 438 441 444 447 450 453 456 
459 462 465 468 471 474 477 480 483 
486 489 492 495 498 501 504 507 510 
513 516 519 522 525 528 531 534 537 
540 543 546 549 552 555 558 561 564 
567 570 573 576 579 582 585 588 591 
594 597 600 603 606 609 612 615 618 
621 624 627 630 633 636 639 642 645 
648 651 654 657 660 663 666 669 672 
675 678 681 684 687 690 693 696 699 
[...]
CELL_DATA 708
SCALARS scalars double
LOOKUP_TABLE default
-4.1509570474 -6.5011668523 -5.5091107844 -5.0831770639 -6.2696195881 -8.9046465191 -4.1134565704 -5.7212372489 -6.7541896748 
-5.1788235144 -5.1619100842 -4.5659284668 -2.6762757128 -1.8052293549 2.6307056866 2.6735061823 0.61418580844 2.1300781807 
2.5765684359 -1.6123249207 2.60580109 4.9709632345 6.0052810543 4.9901994008 3.1797593749 5.6613063911 6.1119140556 
7.938492405 7.9719053712 5.2294452543 1.871210484 4.0363418934 1.9034549947 -2.4803723987 -2.7685230025 0.47664783199 
0.72930038832 0.38432578312 0.32695435242 4.8638149242 6.2084971299 5.1856692144 4.6424111322 7.2322725193 5.0946196257 
5.2003464385 7.5656223366 7.6745912095 5.2041636117 4.5693381514 4.9862066088 3.0673811878 6.308321935 4.958972087 
7.485756832 7.154555784 5.3279019993 6.8155097165 7.6160532534 2.8135604655 3.8205833478 3.2323012509 5.7063648768 
2.8209295522 2.176040045 3.0357754352 4.2083322753 5.8664398143 4.946596458 4.8146959156 -0.67448710124 -0.011174115392 
-0.77574545466 -0.012912445401 -0.74782738872 -6.6163534444 -4.9947515848 -2.8174872399 -7.729148984 -5.3465132569 -5.0341123989 
-4.5304332189 -4.9807687344 -1.9442928215 -1.9819764864 -2.0931932193 2.0693992196 -1.8464337067 0.47085051981 -1.0216602858 
-1.3479606558 -6.1307084933 -4.4655542481 -6.749175112 -3.2932215022 -4.3095625046 -4.5898251326 -3.7965799693 0.20722904943 
-2.5698550034 -1.0025328999 -1.344339916 -2.7773580849 -1.1521238078 -2.8012895342 -2.6175960531 -0.91033253804 2.7206327191 
1.6980175422 1.8105177444 -0.29452874053 1.8516475623 1.3858579462 1.5938733939 0.90848459647 -0.55518995477 -0.69851778978 
0.20808710559 -3.324706018 -5.9153899806 -1.3779783143 -5.3789995565 -3.2106276133 -5.1925853309 -4.5572740216 -3.4240256497 
-7.3045326311 -3.3970252901 -8.1844307566 -4.4032969987 -6.741128738 -5.4951941564 2.5746092465 3.1681495393 -1.6038366488 
-2.1362765873 0.40498708826 1.7052531166 4.2728546032 5.1681034476 2.9395116363 3.887143814 2.7938975435 5.1558449716 
4.8319197713 2.1302419411 2.2424927146 6.1181779715 0.63268305038 5.4599802263 -0.26323386583 -1.7809102533 0.55436618762 
-0.13849741392 -2.3106930447 2.3260600596 -0.93836638643 2.9418412379 3.0026625966 3.5370024722 4.1380320652 6.9427295507 
6.5117364706 7.2409250933 5.3757436345 5.6966247846 1.3341388188 3.2020595337 4.7233724877 1.0625579288 3.9110405155 
4.6894442396 4.5968394205 5.2804997896 1.9718898825 5.7952568404 5.0543384161 3.0608075624 1.5139186261 3.2692025683 
3.3860234448 0.72736699482 4.3467286409 3.3387762465 0.60745799714 5.2989302946 3.7281375933 4.7690001229 0.25389488226 
-1.6701316469 0.62159683305 0.94068918791 -5.2325399435 0.93961361175 -3.3752331382 -2.3953712706 2.514255222 -1.7614623696 
-3.5310561237 1.8707732709 3.1116970776 -3.0587228089 0.077061272142 -2.9290305068 -1.5600416558 2.0136334673 -1.5122705343 
1.4861342445 -2.2208908041 -3.3936967016 -2.0659860923 0.44876407648 0.71743681769 -3.6828853247 -0.25758401014 1.4538235549 
4.071366288 0.47073043799 -2.2370161627 -2.2227996872 -1.5129675992 -0.5536235638 -0.12006438011 0.56427123816 1.0722934983 
-1.6322020897 2.6606943097 -0.44116275155 0.26929841482 2.182585735 0.34412726161 0.51127897235 2.9934367834 -1.8959657975 
-2.4161337474 -2.7205541957 -4.3955455578 0.56990892323 -7.6830786807 -6.991860228 -6.9921118769 -5.0111523823 -4.4817322093 
-7.7334485941 -3.6136597335 -6.713355077 -1.9800714358 -7.8226100107 -1.6920974084 -1.9850047013 -2.2809939856 -9.1070588679 
-5.6980463634 -8.4759644832 -6.7137937312 -5.4034093084 -5.8915658024 -8.6723118847 -8.3917162727 -7.6039297625 -7.6890450995 
-8.0612410601 -8.4525186732 -4.5361225675 -8.5955121324 -6.7234821973 -9.1086668116 -6.6681617991 -6.4241556994 -5.7802007879 
-7.7894000209 -7.9058838952 -7.5629760989 -6.9929078077 -7.0391890664 -8.6883064825 -9.2188185859 -9.0728488305 -7.8854269817 
-9.0820774512 -8.5323107828 -8.3307354026 -7.8840644839 -7.7857129979 -8.7486769819 -8.5650080712 -7.5965366161 -7.6422376298 
-8.2228865011 -8.886371053 -7.9403526522 -8.6756185979 -8.5604726968 -9.2677056909 -8.6558282397 -8.5588150347 -9.4525436997 
-9.9438603697 -9.417850762 -9.3189296279 -9.8343448306 -8.7830530193 -9.6370816709 -9.8676977085 -9.3192098025 -9.1977444738 
-9.4089659147 -9.3735892973 -8.3864007885 -9.6033813631 -9.4862111531 -6.3949364475 -4.0050967704 -8.8521260004 -7.4285082683 
-5.3239643478 -7.6314895084 -9.859344963 -9.1992125918 -8.9367537604 -8.0212888001 -8.2067385035 -9.2159799421 -9.4518294993 
-5.6389891143 -9.1963594419 -8.6060472277 -7.3719407961 -8.1404810369 -8.1425500361 -8.4895548288 -7.9006319915 -8.8530517946 
1.7362037732 -5.0172393071 -6.0553575652 -8.6788718189 -7.6838970708 -9.459048391 -9.3397997835 -9.0181686854 -9.0827305505 
-9.3316587834 -8.7843521211 -9.8905076175 -9.3647170695 -9.6927936792 -9.9916124776 -9.7522610224 -9.7362410542 -9.9697065433 
-9.678212821 -9.6040789573 -9.7810212518 8.7826638978 3.986825388 7.8329099651 8.8358555223 7.3962888944 9.097512003 
8.8740898529 8.0627799548 6.7338613746 7.8726476823 3.0025675937 8.0851795438 5.4016577669 5.356683044 4.4834724301 
9.9127097735 6.1880944625 4.5549558246 6.4642668233 5.29720357 6.8101524603 9.1643487923 9.4131672202 8.682833447 
8.6060672002 8.4408775972 6.6505361015 6.5347801848 6.860090502 5.3576704238 9.820282502 8.1958665423 7.5547766667 
5.0104854066 9.5296789756 9.4994266505 8.8488717705 8.6693458926 8.7648512096 9.1839290582 9.6254985406 9.8536528597 
7.5214012308 9.8536136874 8.0498248015 7.9204312967 8.5544661159 8.2738324256 7.918719116 7.8565580909 7.9641679772 
8.9844266786 9.137422456 9.431173985 8.7612824974 8.2954454854 8.4165216766 9.3126771865 8.9151373449 8.4493003454 
9.5048801557 9.9662821835 9.3957403322 9.597643428 9.8571143802 8.8571764497 9.7091222627 9.8062894457 9.5805018728 
9.1141232281 9.2921002387 9.9288877072 8.4878357216 9.8883881776 9.9155943261 5.9165393197 4.7247823144 8.6576879796 
7.4208015879 7.9985543821 7.9525925942 9.1875704764 9.8866626078 8.5983818612 8.5457916021 8.7163772996 9.1999693895 
8.6789649544 9.8073831429 8.8062373438 9.4132086836 6.8495885447 6.8505347954 5.7816225448 4.677273722 7.0279924954 
6.7270492059 3.3402553092 4.9688230843 9.3952557026 9.0489901671 8.9749096743 6.1507062286 9.9742412177 9.5255990593 
9.8489392959 9.7244759347 8.8377577738 9.9949189507 9.8626154304 9.5518478266 9.8611270911 9.8463657544 9.6176486087 
9.8001519338 9.2189406445 9.659178132 9.2280172777 6.3462309256 9.5359761913 5.0431921408 2.3272420535 6.6120368008 
5.3137213373 5.1192010493 6.0376352709 4.7263527739 6.5371807874 7.174811153 5.4441707441 6.3048136811 7.7992578421 
5.8024051306 -1.6880136418 -2.0110198986 0.88122107234 1.5088062612 -0.88006883594 2.4472916189 -2.2429503602 -3.6998646918 
-4.4232577389 -3.8984683243 -3.26831179 -3.5444826948 -4.7804471552 -4.6673914728 -4.3859042832 -0.56451512758 -2.3698460861 
0.20334463152 -0.84660283498 3.0629046943 4.4640888313 0.63043311705 0.63261799498 0.76817919335 1.2555828775 -1.2891968388 
-4.9199767474 -4.4030506543 -4.3273080528 -5.5304021 -4.6902525578 -5.7069383983 -5.1858078378 -5.5513358112 -5.5519879212 
-2.5002806551 -1.5875767686 -3.8074159401 -2.5996413708 -1.8323555087 -6.7939887465 -6.2154577207 -4.7417274108 -5.4560561299 
-6.7643904449 -0.7967971953 -0.85012708816 -1.0609534462 -3.1750408313 -3.344651678 -1.5184089764 -2.8281224499 -3.1201839037 
-2.2700564181 -4.7000337773 -2.264248376 -0.89611614321 1.599317176 3.5966205049 2.5252375456 3.9590000526 5.4336766418 
3.2265350353 3.41709234 6.779468023 6.1031924264 7.8520712627 3.5964419598 2.3594346661 3.4803184363 2.840178091 
1.100733715 2.1724003958 2.333235474 1.4163963248 2.8710172785 5.2229958775 4.0876073549 8.4997786162 2.6930668299 
5.6660822819 3.9693875214 -0.5151322201 -3.7957011861 2.6533098181 2.6002552733 3.2817753105 7.5106131916 2.4146771882 
2.803560009 3.1646465877 2.1873039998 0.47268383561 -0.58996241759 0.3206124724 2.5525657346 -0.61178845097 -2.4585048526 
-1.273745215 0.40604347026 2.7234505106 3.4018849396 2.4752925383 4.7059880455 9.8717160745 4.6209687152 4.8116244842 
4.1683654462 8.91738624 9.5715244286 5.3951778365 4.0804357157 4.8011167061 6.0291366873 5.8072730949 3.2454109469 
1.6291312805 6.1287199109 -1.9053957337 -2.3173854771 1.4646828941 3.2714207342 -0.15194267721 1.7416528692 -3.2838632984 
-1.9232771844 -0.51573905154 -0.18587783559 -3.4957806805 -4.3232385756 -5.589761787 -5.9699837274 -4.2849986546 -0.16284140283 
-2.5258328779 0.6521706412 -0.56742161204 2.4202195958 -0.025682158743 1.4170083267 3.8432042682 -1.5529066931 1.568228067 
-0.96848525728 -3.0672916227 -4.1639815008 -3.4159935184 -5.9980432081 -2.1355976088 -4.853383434 -2.9680349037 -4.2977389108 
-4.9985253117 -3.373961763 -1.4590246768 -3.6702262748 -0.13968303918 -2.3711204302 -3.9186102934 -3.815117348 -2.23131198 
-5.419807332 -4.9432360217 -1.0754458002 -0.38399100026 -1.7304965536 -1.9960658126 -0.15355115836 -3.7484253741 -2.8947817582 
0.51690474755 -4.0478411327 -2.9257124842 -3.4501155875 0.56069856312 3.4651682432 0.85329125736 0.3536782762 6.127527179 
5.8420845916 3.780155337 7.777723934 4.8982433119 5.1580143548 5.9679410803 3.7928028946 3.7712939388 0.52725305584 
3.9000790131 2.1150651729 -0.68200271359 3.066194653 -0.14835375741 4.2166996111 4.8975795815 4.6595060034 4.7526324996 
0.71013987972 4.4449241797 -1.3502091728 1.0648048456 -2.9878708123 1.210811741 4.0788893394 4.1089340779 -0.50283190824 
3.1800524957 2.5771292103 2.6165550593 0.023585120233 2.7825571538 -0.44715910164 2.1547639042 0.96771847443 -0.87515855372 
0.58966563543 0.92088379206 -1.5076833337 2.4490997921 2.5070935707 2.7022863496 
