# vtk DataFile Version 5.1
vtk output
ASCII
DATASET POLYDATA
POINTS 356 float
0.208219 0.29299 -0.127748 0.440822 0.613845 8.32558 0.493208 7.89281 -0.00412817 
0.74844 7.68612 8.13964 8.18474 0.796778 0.0749291 8.06393 0.986126 8.18345 
8.20778 7.80887 0.215741 7.9399 7.57425 8.06187 -0.434087 -0.151403 0.807992 
-0.767647 -0.363656 2.2804 -0.978922 -0.501524 3.81409 -1.07366 -0.539651 5.19232 
-0.830844 -0.16984 6.61928 -0.266839 0.0892265 7.58809 -0.389053 0.93709 -0.389053 
-0.214502 2.27602 -0.914681 -0.482077 3.66576 -0.905565 -0.593753 5.25315 -0.719084 
-0.447837 6.51383 -0.274015 0.0647458 7.43556 -0.607024 0.0959076 8.24033 1.03593 
-0.0949345 8.24901 2.40458 -0.373451 8.46178 3.8303 -0.227352 8.31845 5.2386 
-0.0800044 8.27771 6.48974 0.334572 8.02651 7.48327 -0.111552 1.23891 8.60436 
0.0367834 2.42436 8.77546 -0.157494 3.75288 8.80002 -0.221015 5.36365 8.79152 
0.000226788 6.4092 8.46079 0.566443 7.16931 8.48933 8.4994 0.26115 0.894075 
8.81303 -0.0272576 2.13847 8.97991 -0.273599 3.69414 9.0525 -0.192389 5.19727 
8.79471 0.11116 6.5686 8.36039 0.689801 7.48711 8.30687 1.34851 0.27483 
8.48572 2.29093 -0.549338 8.64974 3.76532 -0.466166 8.56718 5.14848 -0.35979 
8.64944 6.45683 0.0474935 8.28785 7.33409 -0.145406 8.18603 8.16886 1.07809 
8.28624 8.23633 2.38373 8.30087 8.2462 3.84092 8.33569 8.49288 5.26487 
8.18615 8.24475 6.44775 8.00687 7.87771 7.46347 8.2034 1.57767 8.15139 
8.42214 2.49779 8.70643 8.51188 3.80806 8.62121 8.4464 5.10312 8.5226 
8.40663 6.23443 8.26682 7.92126 6.9557 8.14837 1.27391 0.154172 -0.699973 
2.47921 -0.374564 -0.684497 4.04818 -0.522971 -1.02812 5.45984 -0.216475 -0.941791 
6.6857 -0.0551517 -0.858646 7.56543 0.432528 -0.233434 1.26284 0.404451 8.84229 
2.5772 0.0946924 8.76111 4.07737 0.0732212 8.91522 5.53344 0.0882952 8.91761 
6.59263 0.443675 8.67365 7.43199 0.772371 8.32291 1.2078 8.07984 -0.633571 
2.39095 8.46367 -0.766003 4.05059 8.56144 -0.986573 5.39896 8.45274 -0.955646 
6.59728 8.15542 -0.684282 7.66633 8.16952 -0.306209 1.4065 7.62 8.57947 
2.43436 8.15093 8.59823 3.93673 8.13105 8.95794 5.38524 8.05609 8.78325 
6.34556 7.61427 8.54935 7.24666 7.68779 8.32069 -1.72854 -0.0084437 4.54168 
-1.75986 5.66338 1.47316 -1.53215 5.58054 7.02982 -0.900617 0.669103 7.0776 
-1.09574 0.357182 1.48989 -1.06794 2.9691 8.305 -0.062569 7.2247 7.99192 
-1.16711 7.57068 5.81299 -1.40646 3.03577 0.119558 -1.29448 7.65092 3.13794 
-0.215556 7.27582 0.452164 -2.22169 5.57517 4.52947 -2.21485 2.94995 3.07014 
-2.1411 2.81677 5.86691 -0.157343 0.779169 8.12619 -1.32859 0.215215 5.91165 
-1.62109 0.0475935 2.97205 -0.343027 0.675351 0.392903 -1.26781 4.36042 7.9694 
-0.849496 5.55618 7.8814 -0.940494 6.49291 7.45469 -1.46121 6.60083 6.4141 
-0.502354 7.32062 6.97685 -1.50596 4.4896 0.375988 -1.17343 5.6809 0.318207 
-1.55209 6.58021 2.46842 -1.35139 6.59397 1.06442 -0.970605 7.5005 1.59893 
-1.21637 7.55495 4.52668 -1.97475 6.64583 3.81771 -2.19774 5.55684 2.97015 
-1.89343 6.61329 5.21199 -2.07046 5.52805 5.84531 -2.24285 4.3386 2.27394 
-1.7731 2.98678 1.50167 -1.12845 1.19765 0.631652 -1.6742 0.931123 2.27008 
-1.81842 0.763382 3.75824 -2.12315 4.33694 6.40218 -1.62317 2.98933 7.05011 
-1.92403 0.749796 5.15167 -1.72206 0.999074 6.50234 -0.960475 1.28889 7.89752 
-2.44863 2.92905 4.47883 -2.38619 4.31186 5.11992 -2.39385 4.42655 3.78252 
9.4676 0.466203 4.42414 9.56005 5.47328 1.64624 9.45837 5.45505 6.9731 
9.21752 0.820757 7.251 9.26866 0.741196 1.37355 8.79767 3.04195 7.85281 
8.25437 6.95528 7.69337 8.79246 7.29804 5.71413 8.87554 2.9287 0.499519 
9.09058 7.50599 3.09541 8.38826 7.12829 0.71634 9.61934 5.40901 4.41885 
9.77021 2.87074 2.87806 9.72754 2.90094 5.84865 8.62382 1.07879 8.18771 
9.48084 0.555021 5.89763 9.2852 0.468264 2.95574 8.86884 0.898495 0.275644 
9.35423 4.33813 7.80188 8.76094 5.45728 7.70554 8.92407 6.38901 7.4397 
9.05901 6.4266 6.32774 8.66316 7.21659 6.91636 9.38969 4.29507 0.629463 
8.89446 5.5751 0.552869 9.21566 6.46613 2.45212 9.09536 6.42987 1.1881 
8.91397 7.42078 1.70794 8.99601 7.54456 4.44561 9.45983 6.53283 3.79849 
9.72647 5.40586 3.05457 9.4464 6.48421 5.19033 9.66153 5.4336 5.81309 
9.49474 4.26572 2.35286 9.53285 2.91988 1.58133 9.10931 1.51415 0.752986 
9.19092 1.28795 2.3429 9.37187 1.19478 3.68896 9.38345 4.19662 6.37686 
9.57079 2.96703 7.08565 9.37647 1.18724 5.15108 9.19279 1.38934 6.41313 
9.02029 1.68016 7.76076 9.73383 2.74248 4.39855 9.93314 4.17945 5.13886 
9.90887 4.20018 3.74801 3.54821 -1.75865 1.32589 3.70232 -1.44343 7.02391 
8.61759 -1.03698 4.48656 8.39582 -0.383114 7.54369 8.41559 -0.713355 1.26624 
6.20646 -0.46651 8.13192 1.29484 -0.219499 8.0702 0.875748 -1.41423 5.91066 
6.22107 -0.780474 0.036795 0.841483 -1.54819 2.99482 1.21644 -0.451665 0.25774 
3.65145 -2.12033 4.52005 6.21161 -1.90293 2.95123 6.24081 -1.68624 5.91227 
8.14682 0.258831 8.33707 8.54268 -0.730498 5.97424 8.57518 -0.923144 2.86949 
8.18224 0.0534064 0.0514171 4.95866 -0.898749 7.95759 3.51514 -0.990538 8.2691 
2.37902 -1.02314 7.64015 2.29296 -1.68044 6.46034 1.15032 -0.837548 7.10091 
4.92312 -1.26744 0.276686 3.55039 -1.08856 0.0813802 2.27337 -1.76939 2.23971 
2.38223 -1.36533 0.73874 1.0861 -1.14369 1.50404 0.966041 -1.53981 4.46812 
2.32092 -2.16627 3.74017 3.6085 -2.23247 3.00311 2.31455 -1.9959 5.1629 
3.66942 -2.06878 5.87937 4.85682 -1.90302 2.30127 6.1373 -1.46236 1.29652 
7.53098 -0.532991 0.49003 7.67854 -1.02248 2.15696 7.82792 -1.2698 3.69178 
4.97868 -1.71069 6.48812 6.25701 -1.2281 7.20313 7.91529 -1.17057 5.24893 
7.79828 -0.745472 6.56932 7.411 -0.237537 7.72053 6.23506 -1.94293 4.48148 
4.93378 -2.20957 5.16088 4.92293 -2.33694 3.72468 3.55544 9.39617 1.52279 
3.59536 9.24276 7.13669 7.88784 8.83954 4.37461 7.68333 8.38598 7.05313 
7.756 8.56764 1.57934 6.0658 8.64571 8.09004 1.33353 8.34282 8.01753 
0.851881 8.95366 5.89892 6.13435 8.99687 0.25918 0.811373 9.19388 3.11775 
1.24414 8.5269 0.441976 3.49052 9.9025 4.50242 6.05272 9.65394 3.0176 
6.05299 9.13322 5.94685 7.41603 7.7341 7.80352 7.65294 8.42628 5.79982 
8.02986 9.00892 3.08941 7.63549 8.05691 0.566602 4.73003 8.62871 7.864 
3.44485 8.72858 8.00383 2.43135 8.74072 7.54189 2.27132 9.36986 6.51627 
1.20823 8.63755 6.98538 4.77405 9.29778 0.687737 3.34972 9.24209 0.182945 
2.17259 9.55017 2.30482 2.25846 9.11347 0.934869 0.993442 8.89088 1.61211 
0.83051 9.14286 4.59871 2.10777 9.40158 3.79447 3.48512 9.85594 3.08738 
2.19221 9.56537 5.27068 3.53624 9.35903 5.83378 4.82621 9.80052 2.32042 
6.1499 9.30746 1.51847 7.18696 8.67755 0.672934 7.2189 8.96593 2.34749 
7.27741 9.03791 3.84155 4.74577 9.43594 6.53383 6.00625 9.04968 7.0838 
7.39269 9.15607 5.29473 7.2805 8.91639 6.53128 7.13031 8.31769 7.61783 
6.12933 9.59489 4.50238 4.89783 9.76984 5.28846 4.82147 9.67228 3.80709 
1.69197 3.39724 -2.19085 7.10574 3.46115 -2.07153 4.67377 8.04268 -1.44747 
7.15413 7.68956 -0.784567 1.83273 7.67806 -1.08554 8.15604 5.97996 -1.02177 
8.07232 1.3797 -0.769746 6.03856 0.930721 -1.67387 0.421108 5.91713 -1.46247 
3.32004 0.936302 -1.85878 0.692436 1.21325 -0.907122 4.56726 3.46511 -2.74257 
3.17299 5.98642 -2.50607 5.98176 5.95969 -2.07756 7.69263 7.34015 -0.0415423 
5.9466 7.84517 -1.12001 3.20878 7.99149 -1.40065 0.712446 7.59374 -0.539986 
7.80633 4.6977 -1.39859 7.90658 3.37338 -1.33388 7.4621 2.28816 -1.33672 
6.53865 2.18809 -2.08048 7.12875 1.05766 -1.32688 0.651876 4.65703 -1.78899 
0.472373 3.32924 -1.74244 2.5141 2.09355 -2.21285 1.16964 2.27865 -1.82321 
1.74109 0.996149 -1.64997 4.73394 0.717403 -1.95144 4.0104 2.15755 -2.43331 
3.12073 3.46125 -2.63748 5.28039 2.16516 -2.40505 5.8907 3.44302 -2.38719 
2.46043 4.70533 -2.53025 1.66059 5.89816 -1.85622 0.923221 7.17854 -1.19417 
2.4847 7.30767 -1.77916 4.06623 7.49527 -1.87012 6.49014 4.75815 -2.31779 
7.1288 5.96582 -1.7335 5.41607 7.54971 -1.89708 6.68076 7.37022 -1.52128 
7.74364 7.19636 -0.768839 4.72846 6.04565 -2.58227 5.27914 4.75688 -2.61451 
3.91685 4.71395 -2.64412 1.95601 3.54549 9.64229 7.03396 3.57855 9.57609 
4.7232 7.58223 9.05426 7.13898 7.53312 9.01116 2.08749 7.46984 9.02833 
7.70162 5.72053 8.73981 7.881 1.53244 8.72705 5.91393 1.24349 9.34564 
0.794773 5.83634 9.00234 3.27622 1.09996 9.6755 0.853265 1.45728 8.94433 
4.62265 3.48567 9.91444 3.22342 5.93153 9.73375 5.97395 5.91487 9.66826 
7.62614 7.27051 8.2508 5.73029 7.49469 9.16276 3.12533 7.42339 8.98289 
0.90999 7.42487 8.65263 7.6764 4.63078 9.35933 7.721 3.34835 8.97886 
7.41877 2.41886 9.25651 6.40639 2.35966 9.38914 7.0785 1.33892 9.16445 
0.865785 4.71558 9.48376 0.782018 3.39018 9.43594 2.63653 2.29357 9.67111 
1.26643 2.40622 9.55302 1.93012 1.22579 9.31746 4.70153 1.11483 9.39491 
3.98004 2.32228 9.82555 3.21939 3.55096 10.0593 5.32661 2.30918 9.96372 
5.88812 3.52967 9.96065 2.53614 4.6408 9.77843 1.79817 5.88655 9.60868 
1.14171 6.91336 8.9181 2.63281 6.87926 9.32947 4.02292 7.09303 9.53843 
6.37939 4.65923 9.48859 7.04208 5.85136 9.44591 5.35218 6.93929 9.40565 
6.40301 6.91369 8.94463 7.52789 6.8609 8.79196 4.58856 5.89718 9.52522 
5.25613 4.84066 9.93344 3.91148 4.75844 10.0255 
POLYGONS 709 2124
OFFSETS vtktypeint64
0 3 6 9 12 15 18 21 24 
27 30 33 36 39 42 45 48 51 
54 57 60 63 66 69 72 75 78 
81 84 87 90 93 96 99 102 105 
108 111 114 117 120 123 126 129 132 
135 138 141 144 147 150 153 156 159 
162 165 168 171 174 177 180 183 186 
189 192 195 198 201 204 207 210 213 
216 219 222 225 228 231 234 237 240 
243 246 249 252 255 258 261 264 267 
270 273 276 279 282 285 288 291 294 
297 300 303 306 309 312 315 318 321 
324 327 330 333 336 339 342 345 348 
351 354 357 360 363 366 369 372 375 
378 381 384 387 390 393 396 399 402 
405 408 411 414 417 420 423 426 429 
432 435 438 441 444 447 450 453 456 
459 462 465 468 471 474 477 480 483 
486 489 492 495 498 501 504 507 510 
513 516 519 522 525 528 531 534 537 
540 543 546 549 552 555 558 561 564 
567 570 573 576 579 582 585 588 591 
594 597 600 603 606 609 612 615 618 
621 624 627 630 633 636 639 642 645 
648 651 654 657 660 663 666 669 672 
675 678 681 684 687 690 693 696 699 
[...]
CELL_DATA 708
SCALARS scalars double
LOOKUP_TABLE default
-5.3491709662 -5.2475747641 -5.7348558744 -5.3185494176 -5.0222681157 -8.0471855059 -3.5807514698 -5.233894474 -8.3892520594 
-5.6502927255 -6.1966692638 -3.513936108 -2.3026009381 -0.30574558115 3.0290194046 3.0601332828 -0.78570197684 1.1979222291 
3.4037014333 -0.19690182477 3.2908910826 5.9176009556 5.2151540192 5.996779765 6.0287191731 5.4978642029 5.3983382436 
6.2694447603 5.8941719471 3.8331203345 2.0653214148 3.2723738189 2.389693189 -1.2929277282 -2.8437013914 2.2178368379 
0.62120253365 0.19701665957 2.0190363416 3.5044033293 3.5901030335 5.7379463966 4.4486595193 8.0921009315 5.3502648224 
5.0936474488 7.9593074049 8.262726008 6.2948573299 1.9051537964 2.9409993851 2.8624606548 7.2965855 4.3153582086 
7.8658687402 8.0644371795 3.925658216 7.1373177835 7.3068179668 4.3949292235 2.1363906984 4.0422837618 4.4534437279 
2.2723897361 2.9306098544 3.3258148842 2.6344309383 5.9482912851 5.977265019 6.1126428892 1.266394763 -0.20788800588 
-1.7431813286 -1.1101940282 -1.1453150657 -7.0842011398 -4.5824736756 -2.1297832006 -7.7809346593 -4.8063888337 -5.1440198839 
-1.479828639 -3.8803269415 -1.4719212526 -2.1425667814 -1.7024822579 1.7422233876 -1.3506845354 -0.33894040021 -0.94165520261 
-1.6260122376 -5.2512916025 -4.1271128081 -5.6639909507 -2.3584804051 -4.7833776396 -6.6483400227 -6.4261711949 -5.7962339629 
-1.5429530321 -0.6713924781 -0.92335284507 -1.9114806214 -1.7052131976 -2.2537191767 -2.5535394442 -0.5947853862 2.2406770052 
1.8256800393 1.3486397941 -0.74496825497 1.5903086984 1.8572867425 0.96487464223 1.3711057863 -0.40278731643 -0.5413278296 
0.40840445955 -4.3469852837 -8.8714698044 -1.5038127908 -6.6001405354 -2.0635357905 -5.4259161332 -7.4688347092 -2.5492455824 
-5.1622716987 -3.0268681578 -6.9941096941 -4.2669490036 -7.4756099945 -5.4008405626 4.0547051214 4.4227292087 -0.38421061218 
-3.015470946 1.2289770232 0.90079395347 4.4593657531 5.400982682 3.6909176038 3.6896898655 0.58188207299 4.6410267298 
5.1612470933 3.1010038397 3.4017533255 5.3911666384 0.69735941712 5.4861910138 0.03056676446 -0.88823130674 0.81586224566 
2.9207795806 -2.7900404735 0.93174861524 3.0025238681 3.9637512405 2.0072335855 4.09488381 2.2906391053 7.3508015856 
3.3287667111 2.1171165648 6.5386353454 6.7178362419 5.8029465182 1.724850444 0.50758749648 0.53171673463 2.1232565989 
3.7769501078 4.2007605969 4.1438160362 2.2920243481 7.1577612508 6.3943080375 3.9051768301 1.8142541759 3.3974615144 
4.6887176293 1.817165026 4.5714623413 3.6675479609 1.4847911913 5.1394753022 3.8772744103 4.0445892879 -0.90113019722 
-2.6216971119 1.2734771888 0.6241394668 -6.244463135 2.8600387083 -3.8981204276 -2.9562955443 4.7055837531 -1.9535694414 
-2.4205498122 0.15163595527 1.8302483561 -2.8271504851 0.48212421189 -2.4175505245 -0.7245365653 2.1228714794 -2.5919456397 
1.5345229473 -2.6740968629 -2.2669668006 -3.1519145921 2.7137272755 1.1295454453 -5.5335673773 1.7276399411 0.58154045082 
3.6827222028 0.67778379697 -2.8509249389 -3.028670731 1.2783208904 -2.1128115243 -2.2942875309 -2.2588094731 0.77518981291 
-1.4015319936 2.2870362379 -0.20367940675 0.83448065502 1.9195533288 -1.2483162983 -0.19144210736 2.3991249375 -1.1294546205 
-1.47678346 -1.2764993266 0.57835755603 1.7407704649 -5.9282181189 -4.4036016397 -6.7329308411 -4.4490793276 0.51327097819 
-7.2956989696 -3.710516542 -7.2018454203 -1.8818402861 -7.6044891088 0.27045150664 0.08049924625 -4.5429636441 -9.2434465741 
-5.8533743451 -5.8548945703 -7.3497815924 -4.7896012967 -6.9902371525 -8.7099897745 -7.6437754964 -8.1476614379 -8.1338847831 
-7.9380778666 -8.1352823802 -5.7824052729 -7.7613974873 -7.7258995752 -9.3624139829 -6.7176988394 -6.2670755711 -6.8092059616 
-8.0429255979 -8.1041891362 -8.7946256763 -7.8293696945 -7.8404789192 -8.8104609698 -9.4568751444 -9.0848822297 -7.7712110781 
-9.1083125861 -8.2676876278 -8.1685363482 -7.7297560093 -7.4544267821 -8.5983587944 -8.2678453877 -7.5276768047 -8.7894797679 
-8.0953334505 -8.3702609166 -7.8601695389 -9.0383709337 -8.2615018587 -9.3299209118 -8.7477270226 -8.8847783556 -9.4838597753 
-9.9722018691 -9.5072331338 -9.3845686259 -9.9649675902 -8.76142788 -9.5767681879 -9.9230681549 -9.3585037014 -9.1482754602 
-9.2327304748 -9.4887658465 -8.6037928871 -9.5734006833 -9.506260243 -4.6056919376 -3.3321996211 -8.8355975579 -5.9966388322 
-6.1592486166 -6.9474876698 -9.5271550953 -9.5664967006 -8.8383018048 -8.444383754 -8.6515964077 -8.74990011 -9.2973664254 
-7.5679322127 -8.7339191244 -8.6557661877 -7.5656968305 -7.531369644 -9.0887329548 -5.8515491574 -7.2497668204 -9.2099006345 
2.1976961132 -4.7324635819 -7.1698185843 -8.6693774127 -7.5989010241 -9.7024170064 -9.2259016966 -9.2595383374 -9.1409531311 
-9.2376014763 -8.7763339567 -9.9529673859 -9.3298772782 -9.4507477741 -9.8972984272 -9.5671998627 -9.5189178864 -9.8961709207 
-9.5251332439 -9.4468816382 -9.6667197064 7.1655893103 8.8881393199 7.8984172726 9.7426656965 8.1720785339 6.4246760575 
6.9025122418 6.835104464 3.2454060092 8.2459666434 7.7940954211 5.0136732586 8.7834600665 9.117368952 7.491623617 
8.4421939645 8.6803462025 4.6134758239 8.0725672051 8.1012173128 8.754207699 8.2774032718 9.3272423596 8.3229450092 
7.8860872988 8.4752216399 8.466965531 5.7951944012 8.5373478624 5.6493131265 8.5706464491 8.68214424 8.5389979133 
5.2448854489 7.7980081353 7.6956955838 9.9342028836 8.9684103099 8.986827164 8.8792457964 9.4933058085 9.0076315068 
8.7542767131 8.9619026163 7.5885307813 8.5089322256 8.0902766337 7.9971438478 8.3121793786 7.5784288677 8.7288348057 
9.8083896052 8.6610482499 8.2428815545 8.7735897314 8.1837944519 8.3273712456 9.7529098533 8.5973400752 8.2042827259 
9.57382685 9.4458195049 9.5831882483 9.2418296662 9.2551148356 9.9474901234 9.8485022521 9.5016006175 9.2392927802 
9.8364173026 9.6298944082 9.4976805689 9.6129768325 9.513186583 9.4000876732 9.0477063135 8.2998730014 8.7461723056 
5.7106268359 6.7327539483 7.3295948184 9.9881594133 8.8899071045 8.8888970227 9.0346475521 8.9650682655 8.4719462913 
9.6233681202 9.2382718492 8.5417279272 9.7729278982 6.1111532416 7.4955715665 4.3004573855 4.6227396851 4.3986751418 
7.7898137935 9.6355079666 4.9580041034 8.5626050526 9.8745171168 8.1776385141 9.1506642485 9.4187821674 8.9671541136 
9.1714168712 8.9911398999 9.8871598656 9.1705724408 9.5308154368 9.938427773 9.8758826966 9.505533901 9.9222197626 
9.8844930636 9.9852600738 8.9698360119 9.9287786958 4.2212336738 -2.2768259672 7.3052187509 4.9642115342 7.2089370459 
7.1016741684 5.1050146838 6.3673807298 7.0445543284 5.8020514058 5.1601436216 5.4231823266 8.3608731446 5.3692475074 
1.528068977 0.15452345425 0.24959008063 0.83491162275 -0.53802171747 -0.49698007026 0.94015451732 -2.7161614904 -1.5308794974 
-4.0430063882 -1.7644413244 -4.7223893401 -4.9840853576 -6.1164609667 -6.1458489287 -3.5999208446 -2.5969298512 -0.8467185751 
-2.4053717589 -1.3380695446 3.1159797753 3.9429871175 0.13850982452 0.86584527446 0.45365958106 0.60641619772 -1.707302217 
-3.7495240628 -3.5978425996 -2.5833884825 -5.6490739089 -4.4988991341 -5.4941641312 -4.1169491356 -6.4826315816 -6.1577190151 
-4.2808812262 -1.4999813106 -2.8702869279 -1.2594082198 -3.0300640399 -6.090603777 -5.7937677402 -3.6610543112 -5.4111934356 
-6.5086267123 -1.6537810874 -2.0107810655 -2.4030034692 -3.8305786127 -1.0889204419 -1.0527359299 -1.0603630667 -2.3938057001 
-3.7445489579 -3.676498637 -3.068097373 -0.17561059343 1.8876407309 2.3656600541 2.544631413 0.13516510406 5.6379636206 
4.3761591324 8.1475343484 6.3461222363 6.3726712595 5.7115343039 6.9303274977 2.7764394104 3.062845602 2.5813540641 
1.174860814 2.9829051686 0.86293401021 0.91038069253 2.1417164743 6.2331194058 6.7121235772 8.2745365442 3.6925430874 
0.5072881772 6.0624026224 5.8562476255 9.8040041386 3.4149669947 2.2976788807 3.0015871513 6.3880081289 2.3576453066 
4.1779498111 4.2762427354 2.8275177488 -0.63830734203 -0.46706845855 -0.5715374327 0.62251869187 0.4079410787 -0.74194520222 
0.4437100308 0.88330978517 0.77771912457 1.8421808726 0.33825857372 4.2922244373 1.8408126217 4.3192400837 6.7334719055 
4.8658035221 3.4914485225 9.7633699437 4.3413623058 2.8474217993 5.0568572886 6.187956274 4.4481106944 5.6712309386 
8.280872133 5.3947092811 -2.0802359835 -2.2863418242 2.1329379436 4.0369407156 0.32553570806 0.89157320792 -2.1983928568 
-2.3079182967 -1.095061156 -1.2664567101 -5.438116572 -6.087468438 -5.947909523 -6.1651327319 -4.3868559981 0.10897472087 
-2.5135860617 1.0819092956 -1.7831937941 3.485161652 2.1066320457 -0.24810822369 3.5201696207 -0.17038928348 0.05418516533 
-0.24845102516 -1.3941433254 -3.7947607116 -2.5031021609 -6.361575109 -2.2849290282 -5.2555031079 -2.9333162896 -4.6597493646 
-5.4275795406 -2.932406876 0.29976129981 -1.6138260155 -1.0029234006 -0.97526693583 -3.6854856705 -4.2251026683 -0.56811627424 
-4.9553466222 -4.1971233541 -1.4659138183 -1.2839007852 -2.4840326345 -2.3833736506 0.19610316703 -3.002678562 -2.125813694 
-0.19516960263 -4.6437131998 -2.2687952997 -3.856875195 -0.29663794965 3.1416242997 0.8212020057 0.32120757933 3.1973496354 
5.1276332968 2.8563610773 1.8753598621 5.0374088419 4.8901858042 6.532701998 2.4405701607 3.4115971921 2.296058142 
4.3769770008 1.4106116234 -0.75588078047 3.3057883715 -0.19265872065 4.3525227301 4.8423249783 4.1824227898 1.2377476637 
0.42892870183 5.2539591408 -2.4485335673 1.1225909035 4.9736517877 0.81358905143 5.1541502156 4.9007900023 5.8133789382 
1.877277263 0.61101934878 0.38062817521 -0.14929959458 2.5490936728 0.030933843512 2.0611521235 1.3287597404 -0.30223530106 
0.48024465674 1.3400007899 -0.47220802057 3.2104713247 3.0197030601 3.8194626199 
