# vtk DataFile Version 5.1
vtk output
ASCII
DATASET POLYDATA
POINTS 356 float
0.101226 0.0772749 -0.318526 0.311499 0.414187 8.22153 0.47159 7.68258 -0.0401366 
0.614675 7.59647 8.18071 8.12757 0.56297 -0.236733 8.00015 0.895728 8.18721 
7.79296 7.45525 0.211434 7.61677 7.22439 7.90897 -0.477004 -0.292437 0.868077 
-0.906844 -0.383245 2.17712 -1.13533 -0.526996 3.62689 -1.19209 -0.524119 5.06257 
-0.958772 -0.272172 6.34112 -0.477578 -0.164545 7.53125 -0.237485 1.00474 -0.259241 
-0.485366 2.13146 -1.09266 -0.684854 3.6894 -1.07385 -0.662232 5.0679 -0.773921 
-0.492681 6.31628 -0.445409 0.0549185 7.23527 -0.716247 0.0482492 8.15883 0.875481 
-0.195608 8.00201 2.32742 -0.56234 8.34122 3.73856 -0.432994 8.35773 5.01773 
-0.0153115 7.92907 6.23995 0.294923 7.887 7.41555 -0.125111 1.15048 8.4729 
-0.0672851 2.30818 8.66924 -0.388933 3.64021 8.65817 -0.21685 4.99208 8.5175 
-0.0423887 6.21279 8.21274 0.523361 7.02672 8.38787 8.39448 0.256293 0.670203 
8.59715 -0.0351286 2.04713 8.74717 -0.239919 3.51904 8.83116 -0.235509 5.09601 
8.77182 -0.0236003 6.56342 8.40813 0.475062 7.57384 8.1574 1.34119 0.0253944 
8.26371 2.2948 -0.69783 8.3637 3.64066 -0.549387 8.56771 5.09082 -0.350391 
8.50488 6.21153 -0.108112 7.92288 7.02501 -0.112958 7.95124 7.90684 0.974299 
8.14108 8.21643 2.21299 8.20501 8.29833 3.7482 8.09771 8.24497 5.01027 
7.91177 7.80743 6.22468 7.50005 7.36111 7.16183 8.26052 1.50993 8.13906 
8.19471 2.40835 8.4158 8.43839 3.70513 8.31093 8.299 4.94809 8.36391 
8.29398 6.12503 8.17587 7.61291 6.77325 8.05581 1.19505 0.192538 -0.641286 
2.39475 -0.502493 -0.931477 3.95462 -0.576719 -1.19685 5.26049 -0.229395 -1.0786 
6.52704 -0.0458997 -0.931259 7.4537 0.294248 -0.374362 1.25062 0.403454 8.62316 
2.30518 -0.0543331 8.51884 3.87882 -0.110902 8.73627 5.38691 0.178971 8.7769 
6.54922 0.339673 8.73749 7.29075 0.743195 8.29782 1.09648 7.95335 -0.767298 
2.22651 8.4087 -0.803358 3.92462 8.49415 -1.07597 5.27565 8.37217 -1.11582 
6.5484 8.24496 -0.896471 7.265 7.73745 -0.228447 1.33413 7.62524 8.61125 
2.36319 7.95191 8.59153 3.95985 8.07439 8.81138 5.25979 7.79983 8.79561 
6.2879 7.69099 8.59544 7.06586 7.35365 8.16133 -1.66556 0.0714121 4.44294 
-1.9345 5.5305 1.32639 -1.58797 5.34852 6.93896 -1.01711 0.579342 6.98049 
-1.21286 0.280501 1.33554 -1.12793 2.82614 7.98757 -0.0940313 6.9601 7.75344 
-1.11139 7.40252 5.72279 -1.16905 2.90709 0.143273 -1.32164 7.4677 2.99103 
-0.353022 7.16047 0.335989 -2.43657 5.39663 4.45937 -2.43695 2.85712 2.89085 
-2.23378 2.86894 5.67907 -0.183452 0.72019 7.8777 -1.46119 0.1501 5.64889 
-1.81934 -0.0807809 2.88696 -0.531161 0.356847 0.118724 -1.24675 4.20363 7.66538 
-1.05416 5.45548 7.88904 -0.87432 6.22635 7.2612 -1.46066 6.32938 6.26651 
-0.734881 7.27402 6.77089 -1.74824 4.28786 0.334988 -1.18128 5.47535 0.177546 
-1.79596 6.40638 2.27718 -1.34792 6.46763 0.854489 -1.08492 7.38546 1.53567 
-1.23634 7.18804 4.44149 -2.12853 6.55784 3.66958 -2.37496 5.42804 2.96414 
-1.99513 6.48705 5.075 -2.08478 5.38976 5.69566 -2.36518 4.27269 2.21834 
-2.06665 2.90816 1.27091 -1.3177 1.09534 0.398245 -1.77893 0.855162 2.15862 
-1.97445 0.642803 3.70066 -2.2689 4.23853 6.22638 -1.83024 2.86415 6.9968 
-2.01988 0.650839 5.0103 -1.85007 0.864543 6.41062 -0.939799 1.25314 7.78104 
-2.60242 2.80337 4.39157 -2.57839 4.26299 4.98648 -2.49342 4.2491 3.67873 
9.22285 0.382164 4.48082 9.46358 5.38586 1.61046 9.36004 5.33201 6.83445 
8.51076 1.02188 6.83116 9.07925 0.678995 1.27652 8.65714 2.97075 7.64162 
8.1069 6.83906 7.59402 8.66727 7.2224 5.64101 9.0228 2.92829 0.306725 
8.81736 7.36795 3.02468 8.37721 7.08449 0.57746 9.53001 5.19212 4.3356 
9.65178 2.78146 2.81666 9.33322 2.8658 5.70718 8.27655 1.16955 7.79931 
8.92713 0.599563 5.69671 9.27612 0.442884 2.82746 8.65517 0.846626 0.129162 
9.03056 4.16949 7.50951 8.59297 5.36304 7.54142 8.65376 6.21667 7.16939 
9.00018 6.33328 6.199 8.48979 7.07404 6.77988 9.3054 4.31813 0.559845 
8.8846 5.41781 0.604179 9.04688 6.36947 2.35168 9.05274 6.38603 1.07442 
8.62386 7.23499 1.6771 8.71184 7.29617 4.37442 9.37427 6.36938 3.6923 
9.62886 5.35991 2.92134 9.37679 6.35986 4.97836 9.36221 5.31767 5.65735 
9.47926 4.04597 2.16641 9.20863 2.86587 1.52528 8.78741 1.49716 0.73717 
9.06845 1.26541 2.15588 9.23274 1.16273 3.557 9.48283 4.08084 6.29148 
9.34033 2.82564 6.87239 9.27777 1.14544 4.97701 9.19149 1.27821 6.32511 
8.85631 1.52598 7.54069 9.65495 2.53072 4.32025 9.76734 4.05117 4.99814 
9.68747 4.09299 3.6197 3.46514 -1.87598 1.25026 3.50932 -1.59697 6.92163 
8.44847 -1.02107 4.43013 8.02861 -0.202825 7.12326 8.13824 -0.540871 1.19604 
6.08405 -0.528235 8.04008 1.17025 -0.238328 7.8492 0.929373 -1.48575 5.74089 
6.11048 -0.896861 -0.128932 0.744605 -1.72304 2.84895 1.05727 -0.757252 0.00559617 
3.63803 -2.42571 4.35728 6.08865 -2.03614 2.84416 6.13157 -1.78975 5.77146 
7.79946 0.409074 8.00242 8.14861 -0.618858 5.67448 8.42449 -1.0679 2.77993 
7.90411 0.0150839 0.0663345 4.82896 -0.993641 7.94523 3.50071 -0.901623 7.80795 
2.26302 -1.15453 7.46466 2.25263 -1.72258 6.25368 0.910844 -0.935628 6.92068 
4.78874 -1.47023 0.318771 3.45467 -1.1952 -0.00283185 2.15752 -2.0438 2.11962 
2.2632 -1.43615 0.591857 1.03713 -1.08296 1.51921 0.788881 -1.68752 4.39931 
2.26591 -2.22966 3.61995 3.47958 -2.41031 2.80796 2.20209 -2.27182 4.99937 
3.52686 -2.16846 5.6931 4.77494 -2.13507 2.14412 6.08715 -1.65111 1.14904 
7.376 -0.579648 0.489812 7.57482 -0.999333 2.02309 7.61521 -1.28412 3.55803 
4.89404 -1.8499 6.36793 6.11239 -1.0383 7.00653 7.6782 -1.31216 5.12582 
7.65122 -0.927572 6.65358 7.43632 -0.195225 7.7879 6.12569 -2.04451 4.37374 
4.81301 -2.33003 5.03973 4.76403 -2.32124 3.61023 3.35281 9.47812 1.38073 
3.35607 9.17315 7.01518 7.37339 8.21681 4.35638 7.59289 8.29362 6.94979 
7.45923 8.19705 1.58814 5.82425 8.10739 7.79834 1.28902 8.03684 7.75671 
0.858682 8.87733 5.83689 5.89843 8.58217 0.218547 0.712284 9.0132 2.90064 
1.11618 8.3653 0.307172 3.37717 9.38975 4.39271 5.89281 9.1771 2.96048 
5.96455 9.32327 5.82273 7.556 7.86142 7.77743 7.463 8.30059 5.92054 
7.62757 8.50199 2.88419 7.65127 8.13514 0.425444 4.59713 8.72285 7.77152 
3.35277 8.46791 7.86497 2.25122 8.71169 7.54763 2.16746 8.95395 6.29222 
1.05604 8.65589 6.89013 4.6702 9.08508 0.482661 3.31984 8.80778 0.202815 
2.08043 9.15832 2.27701 2.17078 8.9719 0.790256 0.884874 8.81228 1.52037 
0.770418 8.81546 4.41195 1.97846 9.55114 3.73752 3.35802 9.69104 2.88779 
1.99446 9.4481 5.05859 3.39542 9.45687 5.82055 4.71904 9.22457 2.23539 
5.86642 8.97658 1.37138 6.99569 8.5524 0.666343 7.01488 8.91967 2.21097 
7.16757 8.98397 3.72306 4.70734 9.01813 6.37025 5.85906 8.81245 6.96665 
7.19141 8.87877 5.05519 6.88737 8.44247 6.23393 6.83523 7.97445 7.48763 
5.93749 9.15907 4.37519 4.65684 9.5645 5.11784 4.6615 9.68173 3.71045 
1.56285 3.27883 -2.43193 6.80387 3.2473 -1.9075 4.55587 7.80093 -1.43741 
6.82391 7.38363 -0.80691 1.70636 7.46564 -1.02837 7.88723 5.77832 -1.12954 
7.84031 1.20121 -0.871123 5.90936 0.795097 -1.9125 0.404277 5.76936 -1.51338 
3.17623 0.916943 -1.92108 0.533026 1.02733 -1.22215 4.50983 3.37842 -2.74791 
3.0583 5.73853 -2.44037 5.80583 5.87541 -2.29079 7.86536 7.4911 -0.400583 
5.81801 7.60509 -1.23835 3.15559 7.66279 -1.25261 0.781793 7.34642 -0.587425 
7.72487 4.51014 -1.57397 7.927 3.24225 -1.57009 7.35538 2.19581 -1.60481 
6.30858 2.10359 -2.21721 6.81305 1.11113 -1.30833 0.551271 4.49612 -1.8725 
0.474381 3.20822 -1.59664 2.51837 1.93602 -2.345 1.07006 2.13823 -1.88853 
1.69239 0.814693 -1.639 4.5915 0.7347 -2.07246 3.91256 1.98679 -2.57209 
3.13064 3.32221 -2.62359 5.12638 2.07721 -2.35305 5.82281 3.34499 -2.68299 
2.43432 4.52885 -2.42946 1.46041 5.74813 -1.99868 0.959386 6.96959 -1.20326 
2.31976 7.25166 -1.78906 3.8257 7.43436 -2.01233 6.34911 4.6187 -2.39542 
6.96678 5.78396 -1.62156 5.21437 7.34572 -1.9304 6.55382 7.20843 -1.69519 
7.50898 7.07848 -0.81154 4.52986 5.79634 -2.47182 5.08728 4.51436 -2.51699 
3.81921 4.63259 -2.84193 1.75694 3.40683 9.50168 6.94553 3.49453 9.46653 
4.47138 7.23556 8.74263 6.726 7.14617 8.72858 1.81684 7.1507 8.7323 
7.54703 5.58595 8.51409 7.62095 1.5694 8.46171 5.83055 1.30435 9.09162 
0.587411 5.75007 9.09616 3.22613 1.08551 9.25694 0.832868 1.34089 8.84398 
4.55665 3.40115 9.92805 3.02837 5.66854 9.73587 5.72734 5.71283 9.29829 
7.45854 7.01155 8.22135 5.69964 7.04346 8.57239 3.26206 7.27362 8.74051 
1.02617 7.12923 8.39206 7.49448 4.53028 9.07341 7.65198 3.3312 8.7752 
7.37655 2.39721 9.06311 6.34381 2.3467 9.49829 6.9285 1.35968 9.06513 
0.931269 4.48574 9.374 0.552401 3.17687 9.36371 2.48933 2.09121 9.68983 
1.24224 2.22457 9.19998 1.86136 1.20821 9.00945 4.60607 1.02964 9.38663 
3.81273 2.26662 9.52821 3.1328 3.37014 9.86202 5.15785 2.28584 9.72954 
5.72451 3.50308 9.47002 2.43061 4.53439 9.79984 1.75821 5.58586 9.26102 
1.14459 6.7321 8.94932 2.49559 6.88803 9.27302 3.8406 6.86698 9.3274 
6.30773 4.60391 9.56073 6.88104 5.74068 9.23896 5.21809 6.94624 9.33088 
6.26821 6.76343 9.01166 7.29952 6.6905 8.61679 4.57386 5.81446 9.68115 
5.10503 4.57631 9.73929 3.71681 4.64201 9.60378 
POLYGONS 709 2124
OFFSETS vtktypeint64
0 3 6 9 12 15 18 21 24 
27 30 33 36 39 42 45 48 51 
54 57 60 63 66 69 72 75 78 
81 84 87 90 93 96 99 102 105 
108 111 114 117 120 123 126 129 132 
135 138 141 144 147 150 153 156 159 
162 165 168 171 174 177 180 183 186 
189 192 195 198 201 204 207 210 213 
216 219 222 225 228 231 234 237 240 
243 246 249 252 255 258 261 264 267 
270 273 276 279 282 285 288 291 294 
297 300 303 306 309 312 315 318 321 
324 327 330 333 336 339 342 345 348 
351 354 357 360 363 366 369 372 375 
378 381 384 387 390 393 396 399 402 
405 408 411 414 417 420 423 426 429 
432 435 438 441 444 447 450 453 456 
459 462 465 468 471 474 477 480 483 
486 489 492 495 498 501 504 507 510 
513 516 519 522 525 528 531 534 537 
540 543 546 549 552 555 558 561 564 
567 570 573 576 579 582 585 588 591 
594 597 600 603 606 609 612 615 618 
621 624 627 630 633 636 639 642 645 
648 651 654 657 660 663 666 669 672 
675 678 681 684 687 690 693 696 699 
[...]
CELL_DATA 708
SCALARS scalars double
LOOKUP_TABLE default
-3.4641049741 -1.0463910084 -6.1349759729 -5.4027972993 -5.7214359534 -6.4040858961 -3.4315919255 -5.5960545937 -8.9563112707 
-5.7023263462 -6.6677895169 -5.6943921967 -6.1838876563 -0.95146193636 0.47630671972 -0.45810489046 -1.3366617912 0.96876855158 
2.7645976198 1.6148020806 4.3427235192 3.7071235471 4.4569170619 3.412144109 3.4223098444 8.0417059665 7.9037856738 
4.8294387524 4.8582039648 3.4330728473 4.940095937 3.3407312116 5.8174099326 -1.0973743687 0.033728489119 3.0628396847 
-2.7419571089 1.5070849852 2.983881522 4.1660636021 4.936065268 5.6237833006 4.3550234314 7.6385548517 5.4339633632 
5.523418283 8.2431335657 8.6473717565 5.6869139699 2.3335578207 2.4322090968 2.5192249001 7.9620104539 4.2082664609 
5.7128224364 7.1250976542 5.3067080611 5.6793618289 5.3804675097 3.790505705 2.3386340453 3.5460992194 4.6423299728 
2.2788439315 3.5669890136 3.0885624309 3.2140064721 7.1203590606 7.2408053346 7.7062244003 1.0469088332 -2.3501534212 
-0.57184631931 0.081858303364 -5.9215832136 -1.7371817926 -5.7004230741 -2.5637448658 -2.4274907943 -4.5686359009 -5.7524086684 
-0.61467846917 -4.3578224013 -2.2950319307 -0.23442263578 -2.4986855937 1.2517243332 -1.3995649007 0.65247243994 0.6509901886 
-1.367217854 -5.4740997864 -5.0697478262 -6.1579657054 -1.7410726986 -2.5960705424 -5.9298170167 -5.6321453473 -6.601359378 
-1.7075155104 -0.76061688417 -1.613199723 -5.0219999929 -1.7523800056 -2.4319630445 -2.6959369088 -1.1990265175 3.0755941723 
2.4082453539 2.5968668862 0.090153645881 0.76195694835 1.5187777223 0.47487077068 0.93802279448 0.21276120634 -0.97795442164 
0.43004801955 -3.9138097861 -0.28059118462 -3.1581750355 -1.5836795385 -2.6801924787 -5.6477644356 1.714627352 -3.1370366413 
-7.0453862542 -3.4838406328 -7.1118461197 -3.0560483834 -6.5510358323 -1.6239480519 2.24863907 2.9664695983 -1.3205038033 
-2.0652445422 0.62048802418 0.61802842242 5.0306011064 3.703945625 4.4861307968 3.2771364466 2.3074067094 6.9488514957 
7.34425714 7.7207343728 8.1373381453 6.2483735277 2.6014232068 4.8367147159 0.82444587485 0.07732113221 -2.7744492136 
3.3310566979 -0.42439910137 -0.2027919885 3.4164085597 3.841681003 3.2571305036 5.7339692377 4.4528906887 5.8330942443 
5.386621905 5.747355032 5.3598185673 5.0861772808 4.5140406274 0.90053340803 0.49965240741 1.2801921304 5.6730912041 
4.9998090927 5.1372708212 6.0628818968 3.5782414905 4.9539130863 4.9561376472 4.5264943599 1.7862063119 3.9204867445 
4.8081117356 0.64113740419 3.3689448777 1.7817460045 1.3061851701 6.046235253 5.3215625325 5.8017468522 -0.35454943895 
-1.6923356614 -0.39118974675 -1.5294409547 -4.7518761576 2.7023336812 -1.8969250392 -3.0492511686 4.7464176477 -2.4441882858 
-3.1042586851 1.6357888063 2.4284739132 -2.1047722441 -2.0630315875 -1.7012451471 -0.60778935917 -1.1741627523 -1.5165605207 
0.52885815698 -0.61717407968 -2.7985237294 -0.51026547121 -4.4054025878 0.76003770798 -1.830518075 -7.9281339122 -3.3617800897 
-5.517359635 0.57759699259 -0.9249350373 -1.9510005445 -0.50840321397 -1.3931453991 -2.7047994394 -2.7746203616 -2.2026946798 
0.97391852614 2.5673464307 1.9914007848 0.60977164897 0.9006507924 -0.40586472135 -0.31798998643 1.7453174925 -0.2351460968 
-1.8798159298 -0.47310114696 -6.525066918 -4.8396653185 -7.7305736627 -8.0801782646 -6.5875213377 -4.0462058356 -6.5357427476 
-6.460182565 -2.5454063813 -7.2677826077 -4.2676832565 -7.3230609063 -5.6108314444 -5.2681506407 -3.0647281998 -7.8187467601 
-7.3109585343 -6.5927149272 -6.2333321423 -7.3139570216 -6.0560495872 -8.9666805896 -6.9371461105 -8.6386162457 -8.6173304666 
-8.2840099846 -8.8975784691 -6.4918067854 -7.6890424724 -7.3120191864 -7.8677269548 -6.5312812613 -6.8943712538 -7.2511720577 
-7.2027458902 -7.2036264355 -8.7700710637 -7.617003603 -7.6408709752 -8.7479269874 -9.1805346593 -7.792185054 -8.9216426061 
-7.954604266 -7.9798238853 -9.0122600271 -5.3432691103 -7.3849699502 -9.0145234502 -7.7016256011 -8.2542003952 -8.7731190561 
-8.4547079067 -8.5851009176 -4.5706497033 -8.7336919204 -8.4852771204 -9.580823845 -8.4961924839 -8.5943042755 -9.4203133416 
-9.8956256527 -9.7105432917 -8.6714417181 -9.8206061518 -8.995423377 -9.049439494 -9.9183071888 -8.8023991461 -9.4349503693 
-9.2982494563 -9.3867329061 -8.4555934921 -9.5771202233 -9.3624617031 -6.0670779062 -5.7157334507 -8.4987208589 -6.9384036249 
-5.4746822849 -6.8507352998 -9.7927592586 -9.0489434369 -8.5160822557 -7.850599573 -8.036502542 -8.7790334987 -8.1776241784 
-8.5641874332 -8.3011194396 -8.9767232088 -6.9020068815 -6.3615940629 -6.4397802908 -6.8941451903 -5.4600474074 -6.3447122152 
-4.2644450692 -4.398305887 -8.5483942899 -8.3940019612 -8.0900251267 -9.4370158078 -9.2047693079 -8.9401072422 -8.9750865055 
-9.2522647776 -9.0667911994 -9.8199562974 -9.4015067615 -9.8240728405 -9.9659509772 -9.4523600087 -9.8164766844 -9.9621920626 
-9.7877028638 -9.4137351029 -9.7842543893 1.3642444981 0.64815410478 7.2959596596 7.3943435607 7.0054204571 9.9680064132 
0.0035138029937 8.1996140036 9.06093155 7.2527773205 9.3818872868 8.3469826245 3.4271050091 2.975082666 6.9765481493 
7.6513365356 8.7705647035 9.1055485705 7.9526730463 8.8327828884 7.8466399644 9.3464868491 7.081709856 9.6410697688 
9.682704762 7.1211650121 7.5369794403 8.5288668712 7.289792852 8.6299338277 7.6947333861 7.2593058597 8.0898237744 
8.5610042962 9.6749384474 9.6746011339 8.6750011369 9.0653828034 9.2076361858 9.4616381062 9.3351327102 9.7046205489 
8.661175447 9.7133922758 7.273731674 8.4780280228 7.2998421468 6.9972528493 7.9404651893 7.1307076776 8.7684263812 
8.6368968779 9.4183002648 9.559874283 8.72570656 9.3148614902 7.0280812818 9.3771141598 9.1026327107 9.3818932399 
9.3571517069 9.8037199891 9.2804523787 9.0241631652 9.9869710971 9.3031402897 8.9523716023 9.9394417707 8.9056501658 
8.777046387 8.6952269204 9.6908376953 9.0354663325 9.8497673207 9.8511930976 6.0023464439 8.3450847443 9.8093397011 
7.5184494906 8.474169527 6.4360736152 7.6990710762 6.1092405222 9.8193401926 9.3612691892 9.4971927962 9.5252306884 
9.1370229007 7.0956230415 9.7538864626 7.438989164 7.6352525349 8.0598012323 8.0944867718 9.1117100103 7.091201571 
9.2834573299 2.2158303933 6.9437181217 7.2455591773 7.4738296548 7.9656795728 2.6174424539 9.5474706211 9.8938551147 
9.8103842303 9.1484280151 9.4754623961 9.9290674171 9.0957125665 9.3579289913 9.7352076551 9.5536983218 9.4051904846 
9.8035490038 9.2534475618 9.6425987895 9.3625790396 6.9197142094 9.0992960718 6.0186797647 2.8468155024 6.2018805301 
4.7429029962 1.6573041684 5.9806285392 3.4917826709 4.8548150918 3.0911349714 3.1010887714 8.4297238909 2.3093605966 
5.3136420905 0.42930823926 1.4044284422 1.6674375087 1.0798300775 -0.26142637731 -0.41069190793 0.15661983614 -4.1798466745 
-3.5073256003 -4.4663655838 -3.780154689 -3.7851429006 -5.6316123686 -5.621053531 -3.092040513 -1.2413751939 -1.6411324979 
-3.5044726122 0.79805806844 2.7343522526 4.410236887 -1.3360220922 1.4389562283 1.7753893407 -1.5960555029 -2.8903864256 
-4.5411757984 -3.3816960222 -3.206169376 -4.9970632674 -7.0613386087 -2.3701326394 -6.4350319818 -6.0130909975 -5.2030990332 
-3.0015476888 -1.1796494496 -0.10711139484 -0.43596887039 -5.3847581138 -6.7119769864 -6.8735648628 -4.5002410423 -4.9531719652 
-6.1553532001 -1.4618606598 -0.88539252333 -1.2846446381 -2.5869362259 -2.7247855231 -0.53890591497 -3.0905746226 -2.0231401742 
-2.5149635955 -4.3592594288 -2.7298243832 1.9788659309 2.0451924664 1.2731781099 1.0997407795 0.19634265984 4.1143350455 
3.1522505182 8.4779380173 6.4760105702 6.2442979645 8.9214412098 7.6131868605 2.7480514287 3.9149418591 3.6159696433 
-1.385413621 2.8264850534 2.4101376249 2.7242552656 3.0679964893 4.9756608094 2.5686234307 8.638740281 3.552332781 
6.748574976 8.7483059827 1.9806826216 -2.1191304156 3.3296548771 1.0140434926 1.6082564064 7.8674777566 2.808338578 
2.5768058399 2.9916979053 1.1928647321 -0.76121989141 1.7297429001 1.8848461585 1.4225282831 -1.2053989589 0.87899103089 
-0.10090880786 0.67279728172 3.2106835357 0.93111287063 1.4596761504 5.9034654556 6.21060884 3.7461505205 -1.8756708774 
4.9913793525 -0.8527251353 5.9751916975 3.7957409167 0.33396597498 4.4203359957 2.0301719996 3.3764740678 3.5185994514 
-0.61867154786 6.91287957 -0.89481123819 -1.3282490255 1.5103683497 3.8989843107 -0.2822908553 0.40395889151 -1.7916860124 
-2.910945511 -3.8080946383 -1.6657008423 -3.1867726889 -4.3949981899 -2.6845397264 -3.9255859389 -2.3900484773 0.13131986907 
-3.5827985097 0.58931577302 -1.1613264297 2.6385954856 4.421075016 0.2657536784 0.15415875677 1.5515978517 1.5103534482 
-0.74445831096 -5.0619167112 -2.9063918692 -3.853238636 -4.5749177233 -3.0432285138 -4.4089215187 -3.658605824 -3.8418378903 
-4.147991892 -1.8924294728 -2.1799011086 -4.0834515537 -1.4796428351 -1.4147722497 -3.6327941965 -2.9523612061 -2.9323708536 
-4.4307856206 -5.3152729709 -0.027380660878 -3.1031707001 -2.0342682023 -4.3787700852 0.29729412508 0.26064996073 1.2232756655 
-2.4618101567 -3.7012344495 -1.7570316069 -2.0207429373 -0.92610584443 1.842208057 2.3744309676 2.9687335546 2.4046653514 
3.3489494327 3.4217227379 7.8622766164 5.4242780455 2.7797521792 8.1704509994 7.2104601674 1.9236865749 2.066572798 
1.2999412704 1.4302649419 2.5165867601 2.8854917022 0.67871994639 1.0108920019 2.9918191013 3.9539112818 9.2960552801 
0.06668765258 6.0922847931 2.3429268257 1.6655902725 1.9857757626 1.0515940955 2.4180289347 3.99229758 8.6887125851 
1.0798672629 3.206273298 3.0597234082 2.9398745532 -0.83317882214 -0.21712937715 -1.5913564728 -0.24741028609 2.2072344034 
-1.0218081359 1.3574607805 1.9700523543 -0.98109254556 1.8265937212 0.051602818284 
