# vtk DataFile Version 5.1
vtk output
ASCII
DATASET POLYDATA
POINTS 356 float
0.0615814 0.0855616 -0.344137 0.343667 0.487278 8.19691 0.441074 7.67732 -0.170759 
0.775009 7.3685 7.92516 8.11474 0.582934 -0.193463 7.98911 0.826269 8.12218 
7.78933 7.42744 0.207864 7.59303 7.19887 7.74741 -0.580542 -0.399225 0.712165 
-1.02587 -0.567359 2.11557 -1.26237 -0.623465 3.6451 -1.29846 -0.634323 5.00636 
-0.944234 -0.330089 6.44007 -0.443997 -0.068772 7.53532 -0.541814 0.885433 -0.530292 
-0.26543 2.1455 -0.984529 -0.691059 3.62753 -1.01619 -0.687863 5.11645 -0.796278 
-0.476438 6.19184 -0.436834 0.116655 7.11494 -0.64321 0.0651195 7.92277 0.905334 
-0.377081 8.17911 2.28842 -0.272882 8.04241 3.6963 -0.402347 8.23657 4.9852 
-0.158388 7.95559 6.21836 0.263826 7.7733 7.32481 -0.182631 1.13494 8.35646 
0.0659603 2.21706 8.58901 -0.260641 3.59426 8.51574 -0.258066 4.99345 8.49563 
-0.0261141 6.07707 8.18201 0.483273 6.95199 8.37539 8.66006 0.111201 0.518785 
8.837 -0.286377 1.92745 8.97521 -0.416459 3.52189 8.88834 -0.281826 5.09085 
8.62766 -0.0351478 6.47129 8.32376 0.472583 7.56302 8.35656 1.34637 -0.173602 
8.2432 2.22776 -0.750948 8.48795 3.69775 -0.616607 8.5403 5.00033 -0.436624 
8.5688 6.2349 -0.237648 7.90009 7.02686 -0.101295 7.79796 7.79492 1.06986 
7.84822 7.94508 2.24673 8.06611 8.08683 3.64818 7.87263 8.0254 4.98967 
7.88063 7.76054 6.18785 7.714 7.65712 7.23028 8.11737 1.47234 8.09839 
8.14662 2.42183 8.42048 8.28371 3.73821 8.23061 8.19886 4.9101 8.27243 
8.27291 6.04019 8.07821 7.63454 6.71702 7.94832 1.01216 -0.172147 -1.02492 
2.39288 -0.533531 -0.951694 3.84153 -0.560721 -1.1884 5.2475 -0.445912 -1.18906 
6.34598 -0.0201888 -0.713428 7.5668 0.145821 -0.656989 1.1831 0.350928 8.66327 
2.32307 -0.0974441 8.54922 3.91471 -0.154779 8.7205 5.36973 0.0877043 8.67535 
6.42425 0.453401 8.40336 7.40581 0.731119 8.3843 1.17534 7.79268 -0.685306 
2.31486 8.12897 -0.694637 3.8812 8.29105 -0.943898 5.16914 8.14128 -0.91891 
6.3532 7.93262 -0.787509 7.16083 7.78216 -0.273069 1.30642 7.60204 8.61037 
2.27854 7.90815 8.58421 3.88546 7.99387 8.59721 5.15802 7.59952 8.48458 
6.21677 7.42201 8.30206 6.98492 7.29016 8.1329 -1.69068 0.057115 4.24484 
-1.87665 5.37626 1.38101 -1.65064 5.2881 6.78391 -1.0152 0.52044 7.02055 
-1.2533 0.254011 1.32872 -1.09026 2.80766 8.07323 -0.213848 6.95252 7.82678 
-1.03643 7.32344 5.60876 -1.36326 2.90814 -0.00397312 -1.35817 7.33141 2.94405 
-0.539775 7.19184 0.157498 -2.54429 5.39912 4.36013 -2.40847 2.84725 2.88207 
-2.40972 2.80985 5.76533 -0.149423 0.781277 7.82471 -1.53385 0.0217372 5.67163 
-1.53472 0.027911 2.89937 -0.517021 0.392054 0.073887 -1.29358 4.22765 7.57475 
-1.16722 5.46007 7.90638 -0.981672 6.26671 7.23786 -1.75172 6.4841 6.2798 
-0.656361 7.10619 6.74027 -1.72674 4.23521 0.275375 -1.65159 5.50754 0.0582795 
-1.89261 6.46697 2.22255 -1.3643 6.31004 0.863866 -1.00673 7.15619 1.45359 
-1.46018 7.42151 4.3674 -1.94209 6.32749 3.67029 -2.48583 5.41001 2.90641 
-2.00173 6.33698 5.02121 -2.18476 5.26203 5.59064 -2.55364 4.25849 2.13714 
-2.04394 2.86067 1.28782 -1.26897 1.04152 0.401601 -2.04026 0.707912 2.02858 
-2.21381 0.604951 3.58829 -2.37776 4.18794 6.23466 -1.65434 2.90874 6.8832 
-2.13194 0.61691 5.08063 -1.79598 0.880321 6.3872 -1.00826 1.20841 7.7185 
-2.65656 2.7204 4.33494 -2.48827 4.18852 4.94627 -2.63482 4.17 3.70289 
8.97371 0.438088 4.28073 9.40767 5.28852 1.54553 9.2014 5.21667 6.78994 
8.58787 0.892687 6.81411 8.58948 0.806826 1.44353 8.59155 2.96788 7.63673 
8.02388 6.82034 7.53242 8.66315 7.1153 5.65498 8.7584 2.90832 0.298867 
8.79044 7.23631 2.87119 8.28166 6.93083 0.595209 9.4386 5.28887 4.32396 
9.61698 2.68689 2.74838 9.49086 2.78191 5.72239 8.23418 1.18727 7.81397 
8.59196 0.6988 5.66677 8.77088 0.608575 2.77297 8.33796 0.920081 0.283136 
9.03847 4.13587 7.48086 8.54888 5.27004 7.51152 8.69792 6.16573 7.1891 
8.82772 6.1287 6.11804 8.3967 6.9545 6.6827 9.30042 4.25574 0.607856 
8.75154 5.41569 0.601557 8.91119 6.29363 2.33725 8.91368 6.32728 1.0529 
8.63807 7.15472 1.67497 8.54688 7.20511 4.33391 9.29019 6.32949 3.62427 
9.58316 5.31781 2.84934 9.20665 6.33856 4.97935 9.53737 5.21095 5.67839 
9.36041 4.05388 2.24395 9.36065 2.80986 1.459 8.95923 1.3035 0.587739 
9.17774 1.22828 2.07587 9.42731 1.02096 3.59745 9.20214 4.03478 6.16408 
9.12774 2.78938 6.75527 9.35398 1.04545 4.95749 9.09586 1.18564 6.28414 
8.75819 1.57698 7.49609 9.34383 2.6689 4.27297 9.68083 4.06941 4.91323 
9.77756 4.05479 3.62986 3.45624 -2.00757 1.22459 3.48579 -1.74809 6.93128 
8.14043 -0.778545 4.32851 7.90409 -0.192657 7.09541 7.86759 -0.358807 1.23348 
6.11283 -0.585089 8.06876 1.11001 -0.280169 7.8653 0.746017 -1.59824 5.67158 
5.99093 -0.912904 -0.113078 0.846687 -1.63906 2.86693 1.1322 -0.578283 0.140893 
3.5391 -2.30338 4.28724 6.05811 -2.09617 2.77765 6.15193 -1.79918 5.72946 
7.54184 0.617875 7.73818 8.18865 -0.703092 5.81224 8.18855 -0.804399 2.73829 
7.63308 0.244517 0.230254 4.79826 -1.07081 7.77094 3.38873 -0.801323 7.78936 
2.25727 -1.22108 7.46571 2.24518 -1.65168 6.17574 0.956243 -1.00021 6.92065 
4.74155 -1.47109 0.124038 3.40688 -1.17477 0.0682051 2.21332 -1.85974 2.16431 
2.24855 -1.51477 0.583026 0.933281 -1.33794 1.34516 0.868625 -1.63118 4.19313 
2.20203 -2.3437 3.56433 3.48974 -2.45542 2.80629 2.15048 -2.22063 4.99711 
3.50526 -2.35231 5.66586 4.68415 -2.09514 2.09723 5.96249 -1.54489 1.1832 
7.50935 -0.714163 0.223294 7.56921 -1.25467 1.87731 7.73315 -1.45007 3.51107 
4.82155 -1.81115 6.20692 6.04239 -1.17551 6.97279 7.70213 -1.3313 5.13211 
7.55736 -0.871631 6.52911 7.35842 -0.255368 7.78323 6.02243 -1.9287 4.32525 
4.79171 -2.39595 4.99323 4.74662 -2.53644 3.58012 3.31765 9.09883 1.3623 
3.31505 9.0547 6.99283 7.58537 8.49679 4.31229 7.39747 8.08595 6.72683 
7.61583 8.52948 1.51476 5.69579 8.12154 7.87513 1.24557 7.8878 7.68583 
0.814817 8.8712 5.69515 5.8809 8.80474 0.100983 0.682529 8.8455 2.87362 
1.05232 8.30414 0.291728 3.33108 9.5917 4.3653 5.75933 9.19219 2.84877 
5.85322 8.97888 5.77374 7.22416 7.29368 7.74938 7.49363 8.31792 5.88003 
7.72319 8.72626 2.91029 7.75906 8.12213 0.313441 4.54471 8.6374 7.71427 
3.32044 8.27526 7.78755 2.19578 8.68051 7.51559 2.08218 8.96622 6.30574 
0.978383 8.57683 6.90159 4.58998 8.87892 0.54427 3.24437 9.00163 0.108836 
1.96766 9.33727 2.27909 2.07102 8.95061 0.760464 0.896456 8.56469 1.46916 
0.666017 8.91899 4.37462 1.98223 9.09935 3.69459 3.33255 9.49731 2.88338 
2.05613 9.37883 5.05831 3.2987 9.34413 5.81071 4.57297 9.42997 2.18178 
5.85718 8.90654 1.38349 6.94665 8.32318 0.739121 6.94519 8.77007 2.19471 
7.02572 8.81179 3.64731 4.68017 9.01841 6.39872 5.73875 8.48464 6.80997 
6.99745 8.65711 4.98716 6.89948 8.5444 6.29836 6.8892 8.07069 7.42905 
5.89349 9.22382 4.37177 4.63724 9.4698 5.0935 4.58626 9.30575 3.65923 
1.61712 3.17805 -2.27945 6.99975 3.24107 -2.2613 4.57288 8.0189 -1.82646 
7.05581 7.52508 -1.03146 1.56078 7.64648 -1.321 7.68615 5.71083 -0.933247 
7.65417 1.28536 -0.749089 5.85194 0.72476 -1.92048 0.307549 5.78319 -1.59467 
3.14538 0.748818 -2.07965 0.522896 0.968623 -1.14458 4.43887 3.2962 -2.75578 
3.00913 5.76319 -2.59582 5.77429 5.76763 -2.32415 7.63885 7.34192 -0.309506 
5.80736 7.75504 -1.47228 3.01392 7.87576 -1.56581 0.61789 7.40566 -0.673068 
7.66532 4.4882 -1.6923 7.72062 3.25479 -1.29779 7.46359 2.12757 -1.65129 
6.1927 2.0987 -1.99127 6.93996 0.938814 -1.5249 0.394058 4.4746 -1.99652 
0.368854 3.22052 -1.69564 2.42778 1.88638 -2.36908 0.932649 2.0826 -2.04938 
1.66514 0.902443 -1.56646 4.59776 0.756032 -1.91427 3.82959 1.9036 -2.60169 
3.08807 3.2674 -2.74347 5.15604 1.96238 -2.64313 5.74151 3.29069 -2.74469 
2.37036 4.45051 -2.73389 1.56872 5.68296 -1.95001 0.956237 6.91781 -1.12357 
2.37172 7.07132 -1.65363 3.79591 7.21762 -1.76873 6.19495 4.50702 -2.25769 
7.02477 5.73034 -1.98613 5.17704 7.19924 -1.78026 6.32759 7.08293 -1.50826 
7.55636 6.88132 -0.872738 4.41963 5.79335 -2.67161 5.08165 4.54713 -2.77779 
3.80978 4.50751 -2.65635 1.73955 3.30049 9.46548 6.84458 3.4041 9.3994 
4.40616 7.47584 9.13988 6.71815 7.0692 8.57503 1.73548 7.17999 8.83218 
7.50922 5.54723 8.56634 7.66258 1.58204 8.40571 5.8524 1.2272 9.166 
0.583333 5.66688 9.09609 3.15834 1.00118 9.2261 0.731142 1.28763 8.69106 
4.38646 3.40268 9.61866 3.00169 5.67285 9.41177 5.79648 5.6879 9.44694 
7.46895 7.06426 8.2386 5.79706 7.33661 8.92838 3.34373 7.31114 8.79103 
0.99517 7.07693 8.36124 7.48909 4.46854 9.10033 7.63357 3.32542 8.78932 
7.37039 2.34382 8.99863 6.2571 2.33221 9.25363 6.88373 1.31022 9.01082 
0.776608 4.46944 9.24317 0.554025 3.118 9.3023 2.44277 2.17902 9.41726 
1.24615 2.23963 9.1917 1.80866 1.14762 8.95448 4.50016 1.02499 9.16455 
3.81243 2.10656 9.85315 3.10546 3.40828 9.70771 5.17223 2.2271 9.70287 
5.80883 3.41824 9.75771 2.44477 4.44534 9.7121 1.7204 5.55674 9.36452 
1.11745 6.68583 8.902 2.44825 6.84372 9.23263 3.7649 6.69178 9.28265 
6.19941 4.54913 9.31379 6.77544 5.60262 9.17398 5.17098 6.75409 9.13939 
6.15086 6.65127 8.74572 7.28953 6.59435 8.61647 4.40133 5.73449 9.5808 
5.08737 4.61851 9.72778 3.72073 4.55664 9.85475 
POLYGONS 709 2124
OFFSETS vtktypeint64
0 3 6 9 12 15 18 21 24 
27 30 33 36 39 42 45 48 51 
54 57 60 63 66 69 72 75 78 
81 84 87 90 93 96 99 102 105 
108 111 114 117 120 123 126 129 132 
135 138 141 144 147 150 153 156 159 
162 165 168 171 174 177 180 183 186 
189 192 195 198 201 204 207 210 213 
216 219 222 225 228 231 234 237 240 
243 246 249 252 255 258 261 264 267 
270 273 276 279 282 285 288 291 294 
297 300 303 306 309 312 315 318 321 
324 327 330 333 336 339 342 345 348 
351 354 357 360 363 366 369 372 375 
378 381 384 387 390 393 396 399 402 
405 408 411 414 417 420 423 426 429 
432 435 438 441 444 447 450 453 456 
459 462 465 468 471 474 477 480 483 
486 489 492 495 498 501 504 507 510 
513 516 519 522 525 528 531 534 537 
540 543 546 549 552 555 558 561 564 
567 570 573 576 579 582 585 588 591 
594 597 600 603 606 609 612 615 618 
621 624 627 630 633 636 639 642 645 
648 651 654 657 660 663 666 669 672 
675 678 681 684 687 690 693 696 699 
[...]
CELL_DATA 708
SCALARS scalars double
LOOKUP_TABLE default
-4.1657169122 -0.51123147744 -5.2855395556 -5.831826912 -5.5007518414 -5.1540376233 -3.7950325204 -6.0050981886 -5.2180267793 
-5.8515040613 -5.208275533 -4.4392272476 -4.3446054707 -0.28943985155 -0.12792538757 -1.5243251821 -0.5393569089 1.8883573795 
3.3184119963 0.1191084993 2.0774318298 5.2257688493 7.5183450788 5.7083073227 7.8865625151 6.2520469537 6.2761949949 
6.2543551829 6.2557079566 1.8315054287 4.4106765064 1.454126033 6.2153795749 -2.237379875 -1.8149907042 0.30120013933 
-0.93057319996 0.97644679398 -0.84115770477 2.7704961024 6.4989820813 5.3025640564 5.6292875253 7.8972436894 7.4157826704 
7.8452857969 6.7686831618 6.4584264494 2.8234616887 4.3077005056 6.6983636208 3.6063828651 7.0607076456 3.221977728 
6.7072511305 6.7108189187 5.1353915909 8.6061956057 8.2702677541 2.6664375502 5.2807208093 4.9837294913 6.7739321079 
3.1162848831 0.93859528697 2.4784817675 5.2196136656 5.6651935262 4.5000103525 4.2552082843 2.6623792664 -1.413012962 
-2.1376243075 -0.86987665255 -0.46225517063 -5.9992114772 -4.6419787781 -1.2263524302 -5.7499604708 -6.2355829056 -6.0409867241 
-6.8996995004 -5.4177033592 -0.7834205048 -1.4522497776 -1.5602611396 1.9947797269 -1.72606582 0.21600312402 -1.1789791651 
-2.068735799 -5.4632286362 -4.5199222477 -5.0379889304 -2.1287752532 -2.391198904 -5.2621513138 -6.3763276588 -7.6102273328 
-1.3808271651 -0.80212376232 -0.67801934674 -6.6020939003 -1.7820690187 -1.4078301139 -2.2316434403 -0.059911125955 3.7547881954 
0.95839994478 2.244493224 -1.3281637793 0.94283606617 2.9278917551 0.89658016865 0.10642578385 -0.60761730174 0.43256312847 
0.65371230854 -3.5646905528 -0.90304587189 -3.8134753128 2.0680817567 -3.4233990771 -0.51157586379 -0.6894852584 -2.2796847729 
1.4274356927 -1.0923899891 1.9112413507 -0.67774340884 1.8124926783 -2.5309171802 2.9367814855 3.2711211261 -0.21671182591 
-1.9809109546 0.13342685582 0.24976677106 4.3564198654 5.4236050735 2.8520160465 4.0824933906 3.4143319915 6.3490238581 
6.075652923 4.5818539125 4.4433395234 5.9698142755 1.1484722088 5.313816232 0.053848886468 -1.1892581615 0.29321497392 
3.6910030438 -2.3899944943 0.45218168328 4.0165389706 4.3450828054 2.019722458 5.2847125425 3.0925684824 7.267432162 
5.9846728871 5.7458981455 7.4462512525 7.4729561658 6.0604532933 1.281896489 -0.45620376042 0.10157700405 4.9785494114 
6.4541379475 6.4583880845 7.0918562739 2.7564163595 5.5956469119 5.5744622871 5.1712714563 2.0572779532 4.4928889815 
3.1210945187 2.487523036 5.1676184452 4.5917778991 1.7992420279 5.9087570721 5.6822396954 6.2565740066 -0.63262118081 
-2.3720377462 1.1568393892 0.21622176514 -2.995029573 -2.8830622902 -2.4913611356 -2.0395997984 -5.8689589222 -2.3773400979 
-2.9849725476 -6.8934060163 -7.3090570493 -1.9238542915 0.28589016456 -1.717058461 -0.67240505134 1.0025195872 -2.371487583 
-0.0070871677229 -1.6643196206 -1.8212600659 -1.9639620719 -8.1306219278 0.49739328396 -1.933707722 -5.6581952759 -1.5073198362 
-3.7078213627 0.51049967888 -1.1561893324 -1.0658710135 -5.7273995073 -0.35168365786 -0.22316021858 0.287111435 0.87938643528 
-1.5123593162 1.6543002785 -1.192576993 0.73149896138 2.11137997 -1.1131184097 -0.30696582396 2.2706989968 -2.2189751139 
-1.9677248565 -2.6575993031 -6.7652697684 -8.559059291 -7.2971384134 -6.925066373 -7.4253296076 -8.7322560477 -6.8330945582 
-7.4218910539 -8.4102481323 -6.1033327862 -9.1471792063 -0.2747684047 -7.9879832825 -8.112365006 -5.1906296363 -6.7344423679 
-7.7450424865 -3.8110488783 -6.3207008541 -7.9231195719 -6.4949933009 -9.1551858375 -7.0815799261 -8.7453564605 -9.0909349559 
-8.0047039658 -8.3856015709 -5.7956933775 -7.5478852375 -7.5199703989 -6.6909603144 -6.5444859777 -6.9476866089 -6.8635001651 
-6.1118819582 -6.064612341 -8.0481578474 -8.0715798904 -7.9854005536 -8.6061073631 -9.3913833491 -9.4532658689 -7.3979903832 
-9.4489718805 -8.8060698447 -7.9518192911 -8.6902261063 -8.0740996398 -8.6666945438 -8.8284866834 -7.4570581229 -8.117128098 
-8.4283844897 -8.816993074 -9.2676952876 -9.0626430545 -8.2388253557 -8.9896127587 -9.0270331154 -9.056894359 -9.1912825328 
-9.943566285 -9.1052938881 -8.8028822634 -9.9622259658 -8.5877258384 -8.5034975925 -9.9625393182 -9.1170232354 -8.8443072516 
-8.9193787806 -9.4496397394 -8.5854090285 -9.2935540546 -9.3668717684 -7.1353268005 -8.1999294155 -8.989757662 -1.2734759774 
-7.9411831059 -7.3450008777 -6.8555421723 -4.1870958775 -8.9486810082 -8.8074112847 -9.0478983964 -8.8678070823 -8.7461920986 
-8.6511321603 -8.8515659846 -8.6381742547 -7.2916927667 -6.8081524126 -7.6909355154 -3.7286536727 0.042602381933 -6.6693369857 
-9.4282081073 -1.8829404623 -8.4194475237 -8.4174709413 -8.3577473585 -5.6780256802 -9.4915588082 -9.4254180517 -9.5038642177 
-8.9071842206 -8.8501468382 -9.9791654923 -8.861628332 -9.471191875 -9.860765319 -9.5382904156 -9.5065273699 -9.8616814696 
-9.2056555977 -9.2432629979 -9.1706925956 7.9212723984 7.1312594162 6.6364284914 6.1302091642 7.7342992268 6.5190176994 
7.117241559 7.4958966323 2.9965306004 6.9857562619 2.8363264821 8.5116169015 1.4171850606 0.4813606557 6.6314147456 
7.0337724631 8.5988261327 6.2723572177 6.5544166261 9.3132327571 6.7147873646 9.4841312475 6.1922157423 9.4644678521 
9.4845043396 7.6936692602 7.1865473026 6.2620967835 6.5164577394 9.1209534787 7.1147392386 6.9232420319 8.0655487419 
7.1156857787 7.5048493156 7.1830420417 9.8957377782 8.6766729261 9.0449505728 8.6524677849 9.6913702803 8.6435870515 
8.6547953781 8.6507188156 8.0876343218 8.4097257556 7.7031679266 7.7379366191 8.4263241923 8.760026264 8.1401136481 
9.939048767 8.0251569014 7.6236924276 8.437103158 8.6145847635 7.6989347415 9.4432232188 7.4584532455 7.8009075885 
9.6735803899 9.4698171552 9.6854989498 9.2500063573 9.8325146503 9.5112756157 9.3563972465 9.4944760798 9.3566659444 
9.8569885375 9.5662053128 9.468290757 9.9645142531 9.4494903956 9.3180511664 8.4340413243 5.2426300767 9.4867389094 
8.7861855679 5.8408534294 8.1692688013 9.956666072 9.5498960813 9.5427779512 8.9482910943 9.0557708797 9.4524445992 
8.5926908032 8.8180585024 8.9452996567 9.3601079298 8.1069736905 7.7229521169 9.0094826305 6.4691794289 4.9637303149 
8.1959184875 9.5544043953 5.0462132955 9.321803801 8.8621822867 9.1499850239 9.1751993095 9.1196911889 9.4801908092 
9.0815066749 9.2821344888 9.6378284879 9.8565210922 9.425422574 9.8507423515 9.801401587 9.6364794782 9.9151665783 
9.8053021726 9.9661564181 9.4309834192 9.8514102671 5.4096557006 7.1259403488 5.0311349171 8.9695986417 4.8569675658 
9.7115220567 8.5918585882 5.7081452623 9.0796865697 6.6645083566 8.9158435649 4.8830953472 7.1245857041 6.847716165 
6.281251178 -1.5337196641 -1.8543053228 1.1781944832 3.7836747054 -0.45801338236 0.48163352531 -3.8454259768 -3.8944341694 
-1.3733394347 -2.1341650897 -7.223244126 -6.852084869 -1.1071017567 -1.1012463526 -3.7999412169 0.053186657223 -4.4016572365 
0.33994985727 -1.8080924328 3.4370399496 5.7134538194 -2.0367738429 1.7244108133 1.0433687968 -1.7923138963 -0.68770202179 
-4.2549833893 -5.2277249014 -4.9285767193 -6.0668955786 -2.4434795916 -4.8719497099 -3.358606228 -4.1905928996 -5.0758383784 
-3.3158217682 0.72798543384 -0.98552383457 -1.8338282073 -2.0346940098 -5.2336072913 -6.2964483751 -3.318465142 -5.2338561491 
-5.0007691922 -1.1756603296 -1.0704677783 -1.8700797113 -1.7643295713 -0.79800850932 -4.2098579401 -2.9667928474 -0.98381444787 
-5.1127864009 -4.5965131764 -5.157986294 -1.2568721978 2.7028888344 2.8836572168 3.4870799959 1.0933702635 4.4792239731 
5.3994017829 5.0112337403 5.3014899309 5.2279373491 1.8501577924 0.40806455991 4.0364441684 4.7260114937 3.8911367574 
2.2643140369 0.36512057399 2.9885900401 -0.3593646647 4.3290007762 6.5615593605 6.4118699377 2.4089126559 1.0577532602 
6.1913822311 1.5461570725 4.7224457369 3.8658473041 1.2054217855 4.3355721409 4.9741031901 -0.63006047194 4.285650598 
5.1663006464 5.3543261576 0.94057533706 2.2948924868 -0.21915925008 1.976438474 0.80157050757 0.7627668803 -1.6671267314 
0.39735089859 0.31814255351 0.13733044784 2.1157303285 0.33738987564 6.3245399591 8.815913048 2.5622777124 9.4248052721 
5.3367250863 8.1673529553 7.9313616781 4.6674280434 2.9001770455 4.742243319 3.8451615665 3.0898095661 7.762975916 
2.1608013946 6.6017938465 -1.3949171927 -1.0875128192 1.1801260545 3.3997390196 0.45232889857 0.30790568633 -2.4821991065 
-2.9697903316 -1.3546040373 -0.93650605264 -6.2779306261 -6.3449685924 -1.5086364564 -2.1301328133 -2.9423595616 0.045524969196 
-3.4847093791 0.11160126785 -0.77525093643 3.318168625 4.5217502658 0.67261646684 0.054974736228 0.12765953165 1.3905326499 
-1.6120647706 -2.8436571294 -3.328808767 -3.0147483029 -4.5851915157 -1.5051228971 -4.1820694607 -2.6607465838 -3.2114549717 
-3.835176657 -2.1958628133 -2.0351424367 -4.2192625831 -1.3700054687 -1.2758303537 -4.165307133 -4.9589539784 -3.2878803393 
-3.7309626666 -3.9105898369 -1.4345052096 1.4782764578 -0.59790734277 -2.1430553262 0.062081887039 -2.9246012567 -2.4976682635 
1.3544059465 -4.3766154702 -5.1435061979 -4.6801715788 -0.40285797125 0.83630691135 2.6254683871 1.2495286081 1.6700408397 
3.2891240114 1.4136242438 7.7896256632 5.3110316861 4.5803226809 6.3954524731 4.5204134284 1.2876517688 2.8102416687 
2.4332247544 1.6904075981 -0.18160256045 3.4066482323 0.40220049023 4.5245223738 5.837825815 5.0292603365 -0.58028781021 
0.65267433069 5.9829759617 2.3000054202 2.0210429192 0.34686540081 0.97571991198 4.985367258 4.3710754926 1.0146254317 
3.3002467793 2.1736258445 3.4452066679 0.14176880272 2.4850195482 -0.33423748295 2.3417236549 2.9142605478 -1.6233225451 
-1.0939270894 -0.70913243132 -1.4487893701 2.9391903219 1.9013843078 1.8006421612 
