# vtk DataFile Version 5.1
vtk output
ASCII
DATASET POLYDATA
POINTS 356 float
0.104734 0.128047 -0.327818 0.313968 0.467878 8.19452 0.364493 7.65885 -0.158392 
0.696261 7.39642 8.00473 8.01143 0.627607 -0.0601045 7.90429 1.01611 7.98829 
7.90134 7.44047 0.127146 7.59875 7.17696 7.76895 -0.543374 -0.323932 0.748788 
-1.01219 -0.514098 2.06639 -1.28799 -0.727308 3.61877 -1.25597 -0.606215 5.00919 
-0.95576 -0.273597 6.43495 -0.459982 -0.0421497 7.49657 -0.539336 0.844857 -0.527172 
-0.339833 2.08787 -1.05985 -0.660201 3.63327 -0.985559 -0.684433 5.06304 -0.825551 
-0.60175 6.24004 -0.543215 0.270305 7.03133 -0.490286 0.0918171 7.8921 0.845191 
-0.381996 8.22817 2.2137 -0.406864 8.1986 3.67073 -0.375538 8.19436 5.01085 
-0.104265 7.99478 6.2288 0.248275 7.86729 7.28552 -0.172389 1.12829 8.36817 
-0.00446496 2.19173 8.59137 -0.213582 3.5648 8.5629 -0.250454 4.96677 8.4799 
-0.0499339 6.08493 8.24134 0.557408 6.90314 8.23952 8.5108 0.190152 0.557575 
8.71467 -0.200299 1.93324 8.97952 -0.511563 3.46941 8.91067 -0.319819 5.0827 
8.46998 0.089948 6.40651 8.0997 0.556079 7.42727 8.33809 1.25809 -0.247637 
8.33921 2.25327 -0.767173 8.48155 3.72928 -0.611505 8.49611 4.94586 -0.419388 
8.4801 6.22544 -0.0481883 8.04524 6.87326 -0.296114 7.88673 7.84634 1.00698 
7.96165 7.98577 2.2415 7.94858 8.00694 3.62283 7.9684 7.96072 5.01805 
7.73973 7.78551 6.20355 7.61493 7.56703 7.13112 7.99913 1.46694 7.87044 
8.12745 2.39088 8.37543 8.29841 3.75598 8.27725 8.18078 4.94892 8.25051 
8.16803 6.05774 8.01725 7.54052 6.68313 7.95762 1.03441 -0.11986 -1.01219 
2.3527 -0.495289 -0.791998 3.835 -0.524514 -1.21502 5.27323 -0.278515 -1.06339 
6.29247 0.0462086 -0.826708 7.51317 0.13939 -0.602517 1.20507 0.357261 8.63958 
2.30528 -0.14324 8.44185 3.89756 -0.114321 8.65442 5.33509 0.191372 8.6149 
6.45519 0.398535 8.51006 7.31027 0.670856 8.36246 1.15596 7.66868 -0.646692 
2.24389 8.17565 -0.706636 3.8668 8.20852 -0.972817 5.12277 8.08612 -0.914402 
6.31901 7.93525 -0.711843 7.23885 7.78602 -0.32791 1.3135 7.57644 8.61498 
2.31418 7.88783 8.55222 3.8073 7.9059 8.72987 5.13663 7.64071 8.50931 
6.30184 7.49927 8.40746 6.99691 7.29765 8.13768 -1.78204 -0.0149792 4.32161 
-1.90792 5.38045 1.35456 -1.66385 5.25198 6.80719 -0.878779 0.634211 6.87788 
-1.16264 0.338762 1.35292 -1.04708 2.78996 8.06152 -0.127828 6.92391 7.7082 
-1.09818 7.32424 5.66989 -1.4514 2.86987 -0.0972045 -1.25888 7.27575 2.93459 
-0.486088 7.14401 0.166281 -2.62383 5.31419 4.32735 -2.40552 2.8551 2.87283 
-2.28096 2.84996 5.70477 -0.176787 0.73443 7.84215 -1.4086 0.103535 5.65367 
-1.61194 -0.0420188 2.83724 -0.469153 0.412898 0.0782159 -1.34894 4.21409 7.57518 
-1.13689 5.43251 7.88932 -0.997478 6.29302 7.30389 -1.70423 6.4613 6.29113 
-0.673211 7.05839 6.67217 -1.6946 4.2665 0.324983 -1.60129 5.51124 0.066033 
-1.98659 6.46864 2.18572 -1.30708 6.34315 0.862529 -1.02318 7.18655 1.48879 
-1.45699 7.49508 4.36626 -2.20268 6.45196 3.68337 -2.31725 5.37693 2.8787 
-1.93636 6.32354 4.95783 -2.29657 5.34987 5.65462 -2.56861 4.18345 2.10834 
-2.0472 2.83736 1.25504 -1.25215 0.956477 0.390015 -2.01187 0.770266 2.06115 
-2.31741 0.578696 3.55069 -2.37399 4.14897 6.27508 -1.85116 2.85456 7.01804 
-2.18967 0.601992 5.08594 -1.79801 0.840723 6.37095 -0.993836 1.18753 7.73579 
-2.62513 2.6475 4.32396 -2.50545 4.15612 4.93779 -2.77304 4.17819 3.66046 
8.86935 0.435244 4.24198 9.31178 5.29428 1.58363 9.19025 5.17868 6.74058 
8.63732 0.878197 6.92255 8.61721 0.783275 1.4319 8.66529 2.92499 7.66891 
7.95892 6.73577 7.44649 8.6888 7.08945 5.68149 8.68069 2.90812 0.349292 
8.85879 7.28188 2.89362 8.24588 7.0755 0.590536 9.34896 5.26545 4.29824 
9.55916 2.69969 2.79216 9.44986 2.78391 5.64456 8.45912 1.09556 7.85786 
8.84233 0.526995 5.70156 8.74332 0.617244 2.81371 8.3956 0.958779 0.204906 
9.03867 4.128 7.4737 8.54246 5.23465 7.50139 8.6745 6.11701 7.19468 
8.89746 6.16136 6.13232 8.42995 6.94361 6.68919 9.25495 4.25148 0.616066 
8.85505 5.40127 0.519289 8.97768 6.30496 2.29297 8.86393 6.24062 1.02468 
8.58116 7.07501 1.69824 8.53942 7.2477 4.30585 9.27721 6.29682 3.61224 
9.49798 5.25025 2.83979 9.18719 6.29728 4.9706 9.50524 5.20311 5.67942 
9.35827 4.01382 2.22193 9.33266 2.78994 1.43079 8.95452 1.30755 0.590196 
9.20342 1.20767 2.02921 9.48142 1.02507 3.57641 9.17908 3.99212 6.12896 
9.27224 2.78919 6.80649 9.28658 1.05596 4.9659 8.99118 1.27857 6.21586 
8.61604 1.60756 7.47268 9.36785 2.67045 4.3039 9.68003 4.1054 4.90185 
9.76345 4.05887 3.61979 3.47484 -1.9206 1.2562 3.44242 -1.52799 6.83241 
8.15135 -0.731812 4.33365 8.09318 -0.3235 7.15792 8.09546 -0.604273 1.11456 
6.07395 -0.613573 8.0741 1.10869 -0.274956 7.79894 0.726647 -1.5971 5.65622 
6.05749 -1.00411 -0.196575 0.761425 -1.70882 2.82896 1.10031 -0.665126 0.0790702 
3.53919 -2.65822 4.29244 6.0429 -1.91919 2.79666 6.14908 -1.86147 5.76704 
7.83642 0.40019 8.10092 8.0359 -0.709852 5.78382 8.07644 -0.74579 2.79024 
7.81694 0.0468093 -0.00512884 4.79066 -1.00757 7.82063 3.42634 -0.91628 7.91274 
2.24546 -1.2077 7.46251 2.18088 -1.82643 6.27398 0.940077 -1.04525 6.9458 
4.69862 -1.53772 0.0398222 3.43935 -1.24705 -0.0298881 2.19262 -1.98863 2.09089 
2.21911 -1.64628 0.532039 0.910194 -1.28647 1.32012 0.895476 -1.59881 4.26264 
2.15487 -2.35271 3.52689 3.50624 -2.33601 2.83615 2.2056 -2.1697 4.93785 
3.5158 -2.27064 5.66471 4.68393 -2.23941 2.10239 5.90566 -1.60779 1.19148 
7.38935 -0.679583 0.359769 7.58747 -1.21604 1.87112 7.70542 -1.43944 3.50022 
4.81505 -2.05225 6.32201 6.03717 -1.05351 6.89238 7.67615 -1.22992 5.07583 
7.52434 -0.9696 6.47379 7.20731 -0.11747 7.59659 6.11992 -2.22427 4.33966 
4.71293 -2.19276 4.94106 4.75918 -2.50832 3.58666 3.31246 9.18237 1.3571 
3.30788 8.99634 6.98538 7.65415 8.55134 4.34674 7.43952 8.20424 6.85944 
7.56448 8.46779 1.4648 5.71126 8.34144 7.92137 1.25457 7.89596 7.69905 
0.909203 8.66221 5.66345 5.85722 8.78679 0.100376 0.764134 8.73509 2.9196 
1.01842 8.36773 0.270149 3.26985 9.54364 4.386 5.80396 9.12221 2.88389 
5.85991 8.93575 5.74152 7.31355 7.49167 7.75287 7.46707 8.3465 5.68763 
7.60031 8.64417 2.80205 7.59918 7.94535 0.352568 4.51493 8.49794 7.76218 
3.31899 8.35051 7.81064 2.20922 8.6071 7.41367 2.10777 9.03638 6.29264 
1.0691 8.42607 6.85476 4.56143 8.89746 0.528928 3.23132 8.97885 0.0803535 
1.96237 9.3286 2.21974 2.1137 8.7572 0.803432 0.87183 8.58553 1.5029 
0.672213 9.0168 4.38599 1.9627 9.24951 3.65465 3.31544 9.37189 2.89526 
2.02574 9.2556 5.0589 3.31682 9.199 5.73623 4.61701 9.50616 2.15895 
5.86261 8.98233 1.33619 6.80775 8.37561 0.740927 6.90309 8.68667 2.27576 
6.99103 8.70279 3.70542 4.64093 9.03068 6.4157 5.73744 8.47632 6.79036 
6.96534 8.61301 4.96822 6.88015 8.40357 6.28224 6.80203 7.95717 7.42086 
5.82764 9.23265 4.40069 4.56392 9.24155 5.02276 4.53417 9.36334 3.63169 
1.51437 3.20118 -2.44536 7.02234 3.24338 -2.30101 4.54389 7.94162 -1.63567 
6.95393 7.50445 -0.915736 1.56238 7.57901 -1.35127 7.76297 5.70515 -0.959422 
7.54899 1.28778 -0.702537 5.83691 0.83264 -1.85604 0.315296 5.70318 -1.46328 
3.13673 0.742759 -1.99674 0.518364 1.01474 -1.07131 4.41051 3.26775 -2.76184 
3.03772 5.72418 -2.59881 5.81814 5.75024 -2.47371 7.55728 7.23645 -0.136094 
5.84054 7.86401 -1.56097 3.00339 7.9345 -1.61331 0.607195 7.45242 -0.729983 
7.68739 4.48775 -1.7698 7.69853 3.23665 -1.30125 7.45221 2.12796 -1.62362 
6.23487 2.08066 -2.05819 6.9009 0.978069 -1.47953 0.43734 4.43723 -2.02443 
0.291267 3.16938 -1.70072 2.41121 1.89932 -2.34091 1.00026 2.04923 -2.03135 
1.61089 0.834518 -1.64234 4.54902 0.658888 -2.07872 3.81189 1.88518 -2.65729 
3.0691 3.24732 -2.83587 5.16177 1.98196 -2.5666 5.73945 3.28018 -2.73726 
2.42751 4.46283 -2.5074 1.43621 5.78915 -2.19963 0.894835 6.87586 -1.27498 
2.37583 7.02675 -1.65259 3.79967 7.26324 -1.93306 6.16277 4.48492 -2.20557 
6.93769 5.72523 -1.85558 5.11271 7.1996 -1.85114 6.36863 7.0909 -1.59749 
7.56308 6.97795 -0.968756 4.43112 5.64446 -2.47077 5.11483 4.5536 -2.89592 
3.77857 4.50901 -2.99954 1.72061 3.30863 9.44965 6.79037 3.37931 9.26674 
4.59025 7.32671 8.92801 6.5821 7.048 8.55256 1.76682 7.12319 8.75619 
7.45829 5.5185 8.49844 7.6689 1.5989 8.53525 5.86206 1.16567 9.2468 
0.596362 5.64464 9.13622 3.19522 0.990279 9.196 0.734034 1.29335 8.65332 
4.39139 3.36844 9.66447 3.0172 5.62149 9.35628 5.79124 5.67387 9.4579 
7.17407 6.75974 7.81162 5.69947 7.21226 8.8631 3.17881 7.19107 8.5969 
0.895851 7.15017 8.47365 7.48018 4.44012 9.05607 7.58174 3.31456 8.77983 
7.35405 2.35578 8.93445 6.2708 2.2512 9.31118 6.79428 1.40585 8.79846 
0.796791 4.45397 9.21025 0.686684 3.15214 9.07247 2.43314 2.15633 9.3632 
1.15102 2.24108 9.28017 1.78231 1.14535 9.01987 4.53508 1.0069 9.17628 
3.78286 2.10257 9.67478 3.16242 3.3446 9.63646 5.14443 2.24225 9.54689 
5.87731 3.41027 9.73714 2.46841 4.44277 9.66635 1.72747 5.5595 9.33329 
1.07944 6.67211 8.86583 2.48099 6.78836 9.20667 3.74437 6.88019 9.2967 
6.17853 4.5642 9.37629 6.74584 5.58073 9.11847 5.15213 6.71836 9.09097 
6.27652 6.712 8.90193 7.33455 6.59384 8.62956 4.34644 5.72257 9.59612 
5.07214 4.58 9.68556 3.67608 4.54159 9.87654 
POLYGONS 709 2124
OFFSETS vtktypeint64
0 3 6 9 12 15 18 21 24 
27 30 33 36 39 42 45 48 51 
54 57 60 63 66 69 72 75 78 
81 84 87 90 93 96 99 102 105 
108 111 114 117 120 123 126 129 132 
135 138 141 144 147 150 153 156 159 
162 165 168 171 174 177 180 183 186 
189 192 195 198 201 204 207 210 213 
216 219 222 225 228 231 234 237 240 
243 246 249 252 255 258 261 264 267 
270 273 276 279 282 285 288 291 294 
297 300 303 306 309 312 315 318 321 
324 327 330 333 336 339 342 345 348 
351 354 357 360 363 366 369 372 375 
378 381 384 387 390 393 396 399 402 
405 408 411 414 417 420 423 426 429 
432 435 438 441 444 447 450 453 456 
459 462 465 468 471 474 477 480 483 
486 489 492 495 498 501 504 507 510 
513 516 519 522 525 528 531 534 537 
540 543 546 549 552 555 558 561 564 
567 570 573 576 579 582 585 588 591 
594 597 600 603 606 609 612 615 618 
621 624 627 630 633 636 639 642 645 
648 651 654 657 660 663 666 669 672 
675 678 681 684 687 690 693 696 699 
[...]
CELL_DATA 708
SCALARS scalars double
LOOKUP_TABLE default
-4.1808087368 -1.1848235225 -5.8732141774 -4.3955176335 -6.127413864 -6.1522654301 -1.4163176362 -6.108709826 -6.0987282968 
-5.3492745067 -4.4338108823 -5.0544325368 -4.7262069948 -0.68826415242 0.45655608798 -1.0418956078 -0.54462414206 1.4039486731 
2.6188965369 0.28100216863 2.2248310083 6.2727445013 7.0505126753 6.5433685778 4.8156867848 6.0924132627 5.976754338 
5.1380522495 4.9792634207 4.1056413129 3.7893069457 3.8659275891 5.3329819398 -1.0957009143 -2.3965858621 0.25306846717 
0.58107879107 0.58091313717 -0.90159251011 2.8973289209 7.3623695875 5.1527662096 5.5438655748 6.7782517613 7.3195915483 
7.4626608915 6.6310633777 5.976683854 4.375921466 4.622088765 6.151097338 2.2380973898 4.5459200949 5.7768106455 
7.2772727776 7.2598086599 7.126881744 7.4649641681 8.3540502279 1.2703957031 2.4404928301 2.0616741349 6.08561808 
4.6289139528 1.7842926946 4.1554391511 4.4804874179 4.8438425335 6.5337696832 4.6439898983 2.2056408161 -0.37159483573 
-2.3606492718 -0.66636217189 -1.2964107913 -6.7059667574 -5.2236486882 -1.008534177 -6.6804498493 -5.9823918231 -6.1514989613 
-6.0020889501 -6.6795582818 -1.0010659269 -1.9498111469 -1.803852801 2.0870950828 -2.0072027139 0.41322725912 0.37140900278 
-1.2368574817 -5.6223511057 -3.4135838215 -6.70371115 -1.859902024 -3.0089513705 -7.8573693997 -6.023043985 -7.080052439 
-1.4771716293 -1.2418081082 -1.9333009255 -6.1252714917 -1.0933352697 -0.86026529014 -1.7734533671 -1.1323247478 3.0040096974 
0.26559508883 1.1426127575 -1.9351614784 2.3738031784 3.4729571221 2.8072696029 0.081036127805 -1.6791683362 -0.22768045875 
-0.057443145751 -3.8865136541 -7.0158774427 -3.5344163277 -1.9161113291 -2.7507800297 0.89882277682 -4.7277180812 -2.034805128 
1.2142584641 -2.2700836482 0.27251713076 -2.3574903115 -2.213077604 -4.573807137 3.1411956152 3.4100858119 -0.60813531087 
-1.3198947537 1.07991958 0.85877870037 3.9362821111 5.2735462892 3.3792482735 3.9067861452 1.5349653446 6.9895445078 
6.9666350557 4.6020318669 4.8898764152 6.2438417895 1.0855048998 5.8859639515 0.5602119629 -0.65971607579 1.0703251319 
2.8038808302 -2.8438150727 0.77711882003 2.5884748141 3.7584255837 2.7388383625 4.8731649638 3.9209132964 7.84553511 
5.1598041298 5.0715800549 6.0505941404 6.478821205 4.5908333419 2.1162028572 1.9077173251 1.2979823204 4.3402619011 
4.5269910314 6.319953441 7.1881144271 2.4612281397 6.9752710108 6.1935886409 3.8757769825 1.3465533677 3.4505239501 
3.3210710579 2.1741414782 4.2312625454 4.2374709617 1.1264977592 5.4982489916 5.0409098898 5.8758190516 0.045605047139 
-2.4636734425 0.81733474313 0.18819962077 -2.9102042543 -5.1285023393 -3.690026131 -1.3439673639 -5.7166337516 -3.3183717408 
-3.0167493379 -7.5437178535 -7.09506603 -1.4453839525 0.70067258417 -1.4696695599 -0.6615601815 1.5921502897 -1.5241249196 
1.2733738903 -1.9075751022 -2.1194125864 -3.5491652088 -3.6448041152 -1.1244410911 -4.2431617049 -2.237323934 2.0938855006 
4.6933493396 -1.1699546149 -2.3648555744 -3.0006983802 -6.4644523048 -0.72588450094 0.12855933668 0.070250192398 0.53783241701 
-1.5224076542 2.2484606044 -1.1264192548 0.25649242941 2.7528746862 -0.37802760245 0.31072115267 2.9860690546 -2.1770328432 
-1.9507103731 -2.404759324 -2.739977789 -0.37746648247 -6.246335269 -6.6139831011 -7.9443105761 -9.1856851778 -1.2575355792 
-7.3045249183 -8.755175184 -7.3124411458 -5.9157812719 -6.1135009097 -3.2009834556 -2.8168294912 -6.7967774573 -8.7007421003 
-6.8022717284 -4.4177406142 -5.5406362029 -6.474848225 -5.9195284426 -8.8711443739 -6.6144013821 -8.5378516815 -8.4378606372 
-7.9868377784 -8.1599691167 -6.4123209201 -6.9815540664 -7.6269793676 -8.6970507006 -6.3405294663 -6.6909071269 -7.1763900942 
-5.3827416606 -5.32950733 -8.7392743283 -6.8893226275 -6.9481833329 -8.1866224131 -9.7258195483 -9.0255918055 -7.536499289 
-9.0515671893 -8.5033561397 -8.1238603626 -7.9470796621 -7.5106802244 -8.4719754059 -8.4755246479 -6.8986914503 -8.8252200879 
-7.5056684471 -8.1384412587 -8.8426075006 -8.9992403795 -8.1255734451 -9.2129365188 -9.1216006197 -9.1579612025 -9.6157701356 
-9.7225992696 -9.6225222929 -9.3922373821 -9.4023472626 -8.4427534832 -9.4864860631 -9.4969787243 -9.2408116147 -8.7991379144 
-8.824457465 -9.4638689218 -8.8942839999 -9.2344799763 -9.1880521781 -7.6093490335 -6.4744539865 -9.3071691534 -6.08772974 
-7.4333364557 -7.5546487062 -5.7261315576 -8.1551032898 -9.3125780772 -8.7109102287 -8.6919201571 -8.169343657 -7.4625438678 
-9.1731691809 -7.5910270327 -8.6605744557 -7.7362804121 -6.6556130181 -7.3116519076 -4.9521138607 -7.9199983558 -7.7214060574 
1.0520107528 -6.9669463933 -8.2485308375 -7.8449216556 -7.464718319 -6.0884974248 -8.6593295778 -9.1609651441 -8.6172128132 
-9.8050789822 -8.4070606273 -9.3706272058 -9.8855566102 -9.3136369313 -9.7639902607 -9.6456696009 -9.838165457 -9.4170562654 
-9.3134067856 -9.6627168843 -9.7051978691 4.5254987086 6.2654644967 6.9590822596 5.9176621394 7.5969283806 4.7249025569 
3.395587772 7.4741847665 4.805021462 8.0915217121 5.2027825497 8.8961814176 5.9829072433 5.7759160098 7.2137601717 
7.8501188058 8.7729527698 5.6668695447 6.5034083129 8.8414913761 7.3305479863 9.1290912996 7.4021978315 8.883228211 
8.7560627857 8.6678086373 8.5633438321 7.1125127621 7.9427863064 9.0609877319 7.8668016651 7.5432372576 8.4560962357 
7.8658531796 7.3117833237 7.0449793853 9.7980649046 8.5071890435 8.8392555547 8.4561703927 9.1187402619 8.5680425302 
9.5011407074 8.6090580161 9.1184363726 8.1157548379 7.0843278497 7.4011003989 8.2701939859 9.3349475826 9.1853827201 
9.518539938 8.4333317495 7.6574826429 7.1304708083 8.286765267 8.6685242506 9.0629341461 8.3922815127 7.913372082 
9.9206113855 9.8089842392 9.9672524133 9.0580859956 9.643932281 9.854318585 9.8275096411 9.7489505977 8.9917900616 
9.388960086 9.8447509788 9.3686286431 9.8716558771 9.354347219 9.2342452116 8.8181355675 6.6840568975 9.3517036965 
8.8130148912 7.0896884479 7.6826670037 9.9723389182 9.7641409859 9.4030334328 8.7096583442 8.7724805771 9.1666591069 
8.620633835 9.8629038746 8.7268463785 9.077761539 8.3452828936 7.956613384 9.4996007158 6.6753834693 7.948326288 
9.3116200052 5.0787415565 7.4299894313 9.1831171915 8.7871908398 9.0260221563 9.8531588677 8.9890308144 9.233822395 
8.9062513293 9.7825332337 9.8612807789 9.6437065333 9.8789295472 9.6329360331 9.9092059407 9.7827213338 9.9437012968 
9.7871229673 9.8683422512 9.7084280449 9.9506524539 6.5020828304 0.56769546367 5.1743168253 9.7431898209 5.9734201014 
9.5518786821 7.6813388253 6.7122304357 9.4784815303 6.3852129286 8.433470602 6.4277343664 3.702316929 8.6127176066 
3.3345820496 -1.9874940824 -2.370620036 2.0463890243 3.2899927082 0.16499943046 0.73693780516 -3.9760227667 -4.2854851271 
-2.5833630997 -2.7269306651 -6.7594099854 -6.422078241 -0.79255218624 -0.78343868178 -4.1539596393 -0.21084465592 -5.4570418672 
0.56850348639 -4.5529473105 2.2370062484 3.8413360486 -1.5701357009 2.6203290993 0.66282856148 -1.2203402594 -2.3559636947 
-4.0720759516 -4.7410377576 -4.022511763 -5.9970751991 -2.6220930625 -5.1355925906 -3.1758052984 -5.445997336 -6.0820373684 
-4.2376543524 -0.75636626451 -1.3347322187 -0.92733572923 -3.0731388088 -6.369010961 -6.5609656261 -3.9564226193 -5.5523413747 
-6.5071235439 -2.3440580389 -0.99521812959 -2.4186096692 -2.7680887363 -1.3888321347 -3.7884452518 -3.0335850669 -1.071436376 
-4.2222832395 -4.6370282501 -3.8067679742 1.2306688867 2.9698681896 0.45757627709 0.48705926481 6.3243340213 5.8461112688 
4.8479980725 2.303307031 4.5562870147 6.7709561849 1.9380463831 1.4131712303 5.1293658224 3.8253785516 5.4799605494 
2.5513957616 -0.54151820687 3.7277650526 0.99241037787 4.7149017415 6.7821110503 7.0487927907 1.8881287387 1.1276214205 
4.6044653577 5.6389682057 6.1844278539 8.1424436882 1.1008821595 3.4602860864 3.4687466274 3.30490236 3.8168155836 
3.5031652549 3.4056666135 -0.27640024436 2.8806547581 -1.1422008716 1.6782646658 0.98527300517 -1.5979748562 1.3020435336 
0.71710251091 -1.4734801533 3.6909301471 3.4743938666 3.9386791267 6.4055885906 -3.5784524326 4.8603105017 7.3752638704 
5.092732622 5.9406498506 5.092569678 4.1130455183 -0.81444816762 4.4932324992 2.7439396307 3.5434156948 4.5623410362 
4.8697518352 6.9078274045 -1.6191482616 -1.3305394488 1.8890873934 3.8989886291 -0.14039634863 0.86726602017 -1.1810079365 
-3.2540453773 -2.2721537884 -3.2583032514 -3.8680379239 -3.4697060193 -3.7243065532 -2.9587851609 -3.6881220461 0.12655022908 
-1.7667706451 -0.085022024154 -0.6798393156 2.661774216 4.5527504608 -0.71435459747 -0.48619341538 0.34252570951 -0.47972549512 
-1.1881137378 -2.3292628167 -4.0354775944 -2.7387209184 -4.9148204283 -1.884707606 -3.9078885333 -2.4272101304 -4.1826081679 
-4.571348169 -3.3209313644 0.36578710053 -0.63714152947 -0.60287281534 -1.5669629267 -5.5228560111 -6.0301942285 -2.8170435571 
-4.3058300339 -4.7628086205 -1.4987975026 0.19274312269 -0.83610543734 -1.3432315055 -1.3323816832 -1.7111272632 -2.7786468249 
-0.38714713748 -2.7933600139 -4.0352592095 -3.4012771358 -0.10722718905 0.32775250729 2.6733911571 1.1288820681 4.4645112029 
2.7347370396 0.91714025723 2.9185378175 5.1545317228 4.7347543853 8.7802965526 5.5806868462 1.1659450629 3.1306009991 
2.4871660275 0.35268632501 0.49174112555 3.672398389 1.0638771631 4.097960113 5.2762319077 4.852180337 2.6021103481 
-0.32939837485 3.6864012013 5.6939772373 3.7126642828 9.7582228392 -0.16623907184 3.1258590756 2.8746210214 4.0436082605 
3.8406480239 1.5383092989 3.3024420533 0.23238379889 1.54780071 0.10218813668 2.2399072018 3.3081030257 -1.8889241509 
-1.0595477919 -1.2770456027 -0.94409547864 3.2849124239 1.3998507259 1.58882768 
