# vtk DataFile Version 5.1
vtk output
ASCII
DATASET POLYDATA
POINTS 356 float
-0.0451845 -0.0632896 -0.480832 0.267721 0.312236 8.07498 0.286583 7.60777 -0.307333 
0.638377 7.26338 7.8858 7.9916 0.522019 -0.204826 7.8081 0.833107 8.0131 
7.61506 7.32108 0.157739 7.37421 6.87284 7.5906 -0.782056 -0.513977 0.598541 
-1.16014 -0.578419 1.98213 -1.45115 -0.890397 3.47859 -1.3042 -0.730515 4.91575 
-1.02797 -0.403939 6.30397 -0.441061 -0.137634 7.35898 -0.590931 0.762733 -0.608475 
-0.416324 2.0129 -1.23698 -0.639118 3.44838 -1.10105 -0.841217 4.86126 -1.01862 
-0.739369 6.2102 -0.639219 0.176778 6.91741 -0.59087 0.00768024 7.80987 0.859403 
-0.399591 8.05701 2.20299 -0.403327 8.04562 3.58172 -0.568618 8.14359 4.926 
-0.129902 7.78073 6.11743 0.323654 7.63331 7.13602 -0.225304 1.0026 8.31245 
-0.0438789 2.15512 8.40689 -0.260289 3.47251 8.36545 -0.297399 4.82973 8.34412 
-0.194028 5.99479 8.10863 0.476494 6.64652 8.19687 8.32755 0.114296 0.509486 
8.7141 -0.307301 1.86269 8.78229 -0.39201 3.42177 8.75493 -0.3611 4.96065 
8.54537 -0.0383611 6.35349 8.25077 0.385749 7.45613 8.34543 1.17703 -0.400668 
8.14989 2.16602 -0.828676 8.34915 3.66468 -0.711645 8.36781 4.82125 -0.514547 
8.28851 6.03399 -0.13605 7.87126 6.84367 -0.251274 7.64889 7.59901 0.916775 
7.68075 7.79634 2.12428 8.0443 7.91476 3.55464 7.94482 8.03337 4.94914 
7.69999 7.70882 6.09475 7.53347 7.41922 7.07381 8.01519 1.46366 7.88672 
7.93768 2.31961 8.214 8.1363 3.60944 8.08464 8.12404 4.79514 8.11728 
7.95752 5.8962 7.78307 7.5794 6.52606 7.88578 0.937664 -0.246255 -1.1108 
2.21454 -0.72217 -0.995182 3.715 -0.508657 -1.20171 5.14582 -0.515012 -1.3542 
6.25547 -0.152989 -0.962599 7.38144 0.113823 -0.70898 1.09514 0.258648 8.63552 
2.26844 -0.161268 8.41776 3.74478 -0.0995027 8.64603 5.18787 0.0435815 8.51629 
6.31039 0.295188 8.40365 7.32285 0.59786 8.21513 1.16756 7.52981 -0.713191 
2.11617 7.98705 -0.829643 3.74565 7.95095 -0.963582 5.01825 7.94268 -1.04974 
6.19441 7.81229 -0.915399 7.10095 7.56879 -0.32103 1.41687 7.23873 8.29051 
2.30011 7.6683 8.38957 3.6715 7.68274 8.56331 4.97963 7.44929 8.25665 
5.97162 7.22297 8.21165 6.69119 7.13165 7.84026 -1.8287 -0.125084 4.21009 
-1.98056 5.35873 1.19239 -1.7827 5.26289 6.82531 -1.10773 0.41578 6.90661 
-1.31664 0.213285 1.27915 -1.23331 2.69543 8.03549 -0.183486 6.8634 7.6328 
-1.2102 7.16234 5.54032 -1.59051 2.68945 -0.293229 -1.38296 7.32816 2.8451 
-0.582531 7.09529 0.0633994 -2.54942 5.22863 4.24629 -2.71994 2.68365 2.6956 
-2.40948 2.66812 5.6409 -0.316988 0.569995 7.82696 -1.56148 0.0631665 5.58901 
-1.59147 -0.0413206 2.75119 -0.727902 0.215 -0.106435 -1.43744 4.06561 7.51779 
-1.16342 5.25967 7.72974 -0.959931 6.12725 7.15105 -1.6375 6.25408 6.1121 
-0.887706 7.07829 6.73418 -1.78403 4.1107 0.174499 -1.43942 5.33444 -0.0309993 
-1.963 6.41668 2.13673 -1.40745 6.25838 0.836676 -1.03162 7.17605 1.39691 
-1.46877 7.30763 4.26185 -2.07628 6.32189 3.57453 -2.56925 5.35754 2.7764 
-2.20135 6.30565 4.95167 -2.26809 5.18242 5.57566 -2.63874 4.13983 2.04166 
-1.98567 2.77693 1.23668 -1.40669 0.930291 0.278946 -2.14489 0.63681 1.98284 
-2.21934 0.414763 3.45692 -2.51067 4.04778 6.15928 -1.7706 2.77429 6.77303 
-2.20922 0.505081 4.9079 -1.92726 0.778855 6.25892 -1.09832 1.11195 7.66257 
-2.72934 2.6703 4.26466 -2.66859 4.11017 4.85675 -2.71578 4.09271 3.57694 
9.04015 0.331553 4.19239 9.26198 5.19361 1.46979 9.10977 5.08731 6.62515 
8.3024 0.911974 6.66938 8.4948 0.729759 1.35302 8.43747 2.87787 7.47733 
7.70822 6.49851 7.19392 8.40119 7.02016 5.45762 8.68606 2.7967 0.162686 
8.59419 7.13663 2.89619 8.00324 6.78718 0.52113 9.18377 5.07131 4.17744 
9.50024 2.63775 2.7763 9.2304 2.70942 5.56447 8.13113 1.04619 7.69082 
8.6497 0.602352 5.58642 8.54988 0.5793 2.68422 8.10075 0.969367 0.304674 
8.87995 4.0456 7.31006 8.41625 5.14175 7.32898 8.51956 5.97895 7.03322 
8.63733 6.0844 6.00615 8.23625 6.85247 6.58576 9.1858 4.09015 0.55084 
8.68393 5.22348 0.476276 8.74021 6.09361 2.23187 8.72491 6.15406 0.903009 
8.50683 7.02522 1.52603 8.37392 7.01979 4.20362 9.1725 6.20302 3.59504 
9.52618 5.1241 2.82729 9.10843 6.15392 4.86569 9.36396 5.17218 5.52554 
9.18122 3.88449 2.18517 9.25349 2.68637 1.3086 8.64518 1.2939 0.6206 
9.07598 1.15376 1.99925 9.20679 0.985856 3.50831 9.05134 3.92433 5.98635 
9.02684 2.76526 6.61788 9.21449 1.00749 4.84814 8.8879 1.22979 6.16085 
8.50875 1.48322 7.30549 9.17233 2.62111 4.1915 9.63172 3.95348 4.80173 
9.59577 4.01693 3.60027 3.37741 -2.14475 1.10117 3.34597 -1.70401 6.75448 
8.09229 -0.929465 4.20154 7.74583 -0.158989 6.93071 7.94194 -0.631575 1.08634 
5.86839 -0.569932 7.81473 1.1735 -0.293301 7.67703 0.752437 -1.60483 5.59259 
5.8102 -0.923576 -0.0667895 0.678849 -1.78799 2.71662 0.977166 -0.817709 -0.0547405 
3.48217 -2.32312 4.16299 5.80468 -2.16659 2.6859 5.9071 -1.82987 5.56079 
7.37195 0.58968 7.55968 7.96846 -0.635197 5.64645 8.08237 -0.976848 2.64163 
7.58315 0.0968742 0.0121842 4.67355 -1.15964 7.75637 3.40238 -0.887907 7.68442 
2.16709 -1.26307 7.34759 2.18563 -1.64937 6.093 0.897821 -1.0902 6.77156 
4.67616 -1.64253 0.000307946 3.34062 -1.33008 -0.166741 2.11856 -2.01466 2.04785 
2.16217 -1.79052 0.490006 0.851797 -1.44051 1.23219 0.788921 -1.68465 4.17684 
2.08205 -2.3492 3.50746 3.38214 -2.56776 2.72404 2.05725 -2.20304 4.85463 
3.45123 -2.25205 5.49374 4.56438 -2.01512 2.12075 5.86749 -1.70244 1.03874 
7.3183 -0.783327 0.24131 7.40489 -1.28433 1.80426 7.56038 -1.48895 3.44443 
4.68394 -1.78241 6.11735 5.94154 -1.21655 6.80553 7.62754 -1.42904 5.014 
7.51715 -0.980489 6.42773 7.23953 -0.259998 7.61273 5.80576 -1.92997 4.15739 
4.65667 -2.37359 4.8623 4.58559 -2.54481 3.48292 3.26523 8.88372 1.25833 
3.218 8.81969 6.87773 7.284 8.17751 3.99638 7.12137 7.72107 6.69264 
7.43234 8.28276 1.36221 5.63059 8.17367 7.73261 1.17586 7.80895 7.69863 
0.83587 8.51187 5.52826 5.71455 8.55396 0.0653352 0.687961 8.68067 2.77752 
0.917325 8.27392 0.144344 3.17692 9.28939 4.27235 5.68064 9.0993 2.7671 
5.56674 8.65567 5.60246 7.18231 7.39187 7.51925 7.26889 7.99275 5.54027 
7.48307 8.40912 2.99654 7.40549 7.79928 0.221714 4.38621 8.26825 7.55254 
3.23159 8.1341 7.62866 2.18119 8.38198 7.24994 2.02798 8.78781 6.14354 
1.04607 8.33826 6.77561 4.42594 8.71751 0.389416 3.12893 8.86041 -0.0203934 
1.96674 9.08826 2.20745 2.03323 8.69873 0.761583 0.885754 8.40686 1.38081 
0.669573 8.64629 4.25581 1.94953 8.93768 3.59429 3.13323 9.22112 2.74648 
1.87166 9.15265 4.92156 3.1744 8.95494 5.55896 4.41683 9.05845 2.16617 
5.63025 8.74847 1.28859 6.71784 8.12243 0.608425 6.77653 8.48598 2.08686 
6.74551 8.70807 3.58271 4.43861 8.92661 6.24836 5.68298 8.45544 6.69762 
6.96215 8.59663 5.02652 6.83061 8.39763 6.12529 6.67303 7.82906 7.33148 
5.73113 9.01708 4.30277 4.51018 9.26762 4.98735 4.44594 9.06973 3.59843 
1.46969 3.04815 -2.608 6.87975 3.16581 -2.3296 4.36762 7.71736 -1.8218 
6.69697 7.10141 -0.775139 1.46472 7.3844 -1.30374 7.68133 5.55692 -1.09608 
7.51323 1.19607 -0.879712 5.74649 0.63989 -2.07588 0.282084 5.55912 -1.37044 
3.08784 0.625354 -2.23579 0.426697 0.867264 -1.27277 4.2601 3.13799 -2.9384 
2.87141 5.53853 -2.60723 5.72537 5.69698 -2.48279 7.59668 7.21701 -0.388411 
5.64546 7.54932 -1.48438 2.92757 7.78608 -1.74791 0.408381 7.46286 -1.04119 
7.60139 4.40097 -1.84628 7.56646 3.13853 -1.37709 7.39017 2.00356 -1.79639 
6.11533 1.9496 -2.19526 6.81998 0.838492 -1.62315 0.389453 4.30059 -2.0983 
0.285137 3.06185 -1.83598 2.35225 1.75653 -2.40671 0.922258 1.95955 -2.13642 
1.55148 0.777002 -1.74377 4.47184 0.673278 -2.08241 3.71307 1.80232 -2.72051 
2.95492 3.18611 -2.99577 5.01018 1.85524 -2.753 5.69322 3.15801 -2.7815 
2.28031 4.29832 -2.5995 1.2739 5.55801 -2.30332 0.760937 6.77715 -1.38727 
2.22366 6.88606 -1.75048 3.63599 6.99228 -2.02019 6.14273 4.40284 -2.42056 
6.90994 5.63628 -1.95199 5.05691 7.01376 -1.92561 6.23914 7.01289 -1.59267 
7.36036 6.75815 -0.932108 4.32447 5.70742 -2.6893 5.00552 4.4222 -2.87192 
3.71309 4.41746 -3.03132 1.6514 3.26376 9.17346 6.72844 3.31792 9.27138 
4.46227 7.22557 8.98212 6.83334 7.08124 8.62853 1.74985 6.91641 8.52202 
7.34552 5.37813 8.32709 7.36251 1.52067 8.26556 5.72118 1.08714 9.16609 
0.446518 5.52517 8.97395 3.06267 0.984209 9.19784 0.717306 1.26068 8.61337 
4.32051 3.25842 9.51018 2.96316 5.50071 9.27462 5.61411 5.47249 9.28019 
7.11078 6.84782 7.87077 5.50943 7.04228 8.72518 3.0696 7.02462 8.49589 
0.816067 7.04296 8.33945 7.34893 4.34946 8.91955 7.41369 3.21305 8.53864 
7.21067 2.29487 8.84655 6.14896 2.19742 9.05033 6.74354 1.24985 8.76534 
0.870893 4.29634 9.14602 0.5478 3.0179 9.08168 2.34736 2.0707 9.40634 
1.17036 2.16876 9.05403 1.79757 1.08977 8.81211 4.44351 0.982375 9.04362 
3.74788 2.04794 9.45849 3.00023 3.33827 9.69013 5.08 2.13508 9.5669 
5.65899 3.31384 9.55183 2.36835 4.31765 9.60307 1.62276 5.44931 9.12395 
1.10622 6.51477 8.63704 2.39782 6.71062 9.07533 3.66501 6.65653 9.10257 
6.087 4.41291 9.25046 6.63398 5.45744 8.9956 4.95976 6.47173 8.82137 
5.98581 6.48936 8.64858 7.01218 6.34067 8.37879 4.30778 5.56931 9.41965 
4.9642 4.46145 9.52296 3.73373 4.39694 9.58117 
POLYGONS 709 2124
OFFSETS vtktypeint64
0 3 6 9 12 15 18 21 24 
27 30 33 36 39 42 45 48 51 
54 57 60 63 66 69 72 75 78 
81 84 87 90 93 96 99 102 105 
108 111 114 117 120 123 126 129 132 
135 138 141 144 147 150 153 156 159 
162 165 168 171 174 177 180 183 186 
189 192 195 198 201 204 207 210 213 
216 219 222 225 228 231 234 237 240 
243 246 249 252 255 258 261 264 267 
270 273 276 279 282 285 288 291 294 
297 300 303 306 309 312 315 318 321 
324 327 330 333 336 339 342 345 348 
351 354 357 360 363 366 369 372 375 
378 381 384 387 390 393 396 399 402 
405 408 411 414 417 420 423 426 429 
432 435 438 441 444 447 450 453 456 
459 462 465 468 471 474 477 480 483 
486 489 492 495 498 501 504 507 510 
513 516 519 522 525 528 531 534 537 
540 543 546 549 552 555 558 561 564 
567 570 573 576 579 582 585 588 591 
594 597 600 603 606 609 612 615 618 
621 624 627 630 633 636 639 642 645 
648 651 654 657 660 663 666 669 672 
675 678 681 684 687 690 693 696 699 
[...]
CELL_DATA 708
SCALARS scalars double
LOOKUP_TABLE default
-4.9781042171 -4.1326443925 -5.8810690901 -5.0325765897 -5.8796967913 -5.4580868129 -4.5157507173 -4.7042062847 -3.6268458946 
-5.5477145955 -4.031883073 -4.34261081 -5.5279742453 0.27770076602 0.88648874443 -0.10726619473 -0.20404249432 2.4602448009 
2.1420646607 -0.032681216389 4.7789216284 3.2952858616 5.3835752242 2.9899931927 4.9284661517 7.9621190229 8.1106181522 
6.7733549277 6.7713641638 4.1900028126 4.9590387198 3.454248567 5.2917716863 -0.25475899717 -2.8701475598 1.8541370468 
1.3474320167 -0.71103126791 1.3604944784 3.7325162362 6.481860191 5.1323451061 5.412973654 8.049531447 7.6550235574 
7.7420643525 7.273378143 7.0007604947 4.4605039127 3.8561343748 3.9464653017 2.2249232128 3.910716274 6.0629643692 
6.272076591 6.6680114239 5.5269171866 8.1481776774 7.7316129984 3.1021890471 4.2202264138 4.7927370691 5.7795540639 
1.7365136316 3.5747979473 2.890355993 3.5384799836 6.697934124 5.4562812973 5.5763271595 1.9476186918 -0.50453962533 
-1.5401282253 -1.8842903859 -2.1755776386 -4.7684225951 -4.2861884456 -2.4186432411 -3.6320081209 -6.2957778208 -5.0440159686 
-7.1773302938 -6.3608048977 -0.91713367489 -1.7680315775 -0.74238170867 1.3028694508 -2.466618769 0.11136731709 -1.5419059275 
-1.6792429628 -5.4977513716 -4.835364043 -6.3105547458 -2.4248999259 -4.3135587016 -5.526934589 -5.8579833071 -5.7979331825 
-1.6652077959 -0.59422672334 -0.66841729849 -5.4856376927 -1.6454279043 -2.179098309 -2.2762708203 -1.1524581331 3.5222446551 
2.1587228031 2.7016158609 0.33634525101 1.3052857068 2.5488557923 0.85349764326 1.2467481536 0.066652474623 -0.51892256239 
0.27150942121 -2.4039685954 -1.0432387028 -2.7337296502 0.13391874196 -3.1235903099 -3.5797790835 1.8460441542 -2.1638352539 
2.100292017 -1.358465827 0.80966908319 -0.62580062632 1.6357483733 -1.7417304237 2.8222447725 3.4032080486 -0.79229153957 
-1.9971481628 2.6223439529 -0.11480454115 4.9745806007 5.1835606981 3.4124441432 3.7097692129 5.8258012542 6.0047539841 
6.2530468691 2.2391983663 2.1964837149 4.9269965456 1.5521393128 6.9248004856 1.1602302585 -0.85746854073 -1.4572010805 
3.3220658114 -1.7663184778 0.83946361428 3.4663718965 4.936058422 1.8654619716 5.1921472622 2.4292354303 6.8471722109 
5.3626680304 4.7599058104 7.7294323402 7.6315756567 5.9305488844 1.8711363962 1.4223087799 1.7299569828 5.3778938792 
4.4127437744 4.0222990343 5.1703530387 3.2240049213 4.5623001825 3.6765656704 5.7611457438 1.3745244774 4.8295685195 
4.2434896273 1.5855648233 5.2950350964 4.5575347605 0.3656507249 6.3925070383 6.1353360775 6.7324669929 -0.64466493103 
-2.0104462035 1.7397749493 0.53278534763 0.64363694933 -4.2443235933 -2.5983889012 -2.2030290924 -8.4128519842 -2.5424329137 
-2.9146848645 -7.5410812856 -5.8496266634 -1.8816375693 -1.6112392547 -2.4677810978 -1.2553053117 0.80104395908 -2.1802502605 
0.46644924021 -1.1775690864 -2.3721389565 -0.71086451768 -5.5895210676 -0.24829665847 -0.90600314844 -6.4789730101 -1.0835160499 
-0.9042521297 -0.27910204338 -1.4584474667 -1.8615260768 -2.4833373627 0.086794110382 -0.73237018886 0.23623897696 -0.20254940332 
-1.6385475328 2.9541254268 -0.62992893425 1.0657823722 2.3201250017 -1.6702771044 -1.2700010168 3.6792002352 -1.9708673418 
-3.1784558509 -3.0728987822 -7.8579934095 -8.1948908625 -7.3324576008 -8.1417692397 -7.2619478743 -7.7372930838 -8.0086682439 
-7.4389162896 -7.2612672271 -7.6806602124 -6.4221560842 -3.5878504257 -7.2997794343 -6.9539323106 -5.6618407785 -7.3157694158 
-7.2420666516 -6.2225137079 -5.9187285966 -7.5945811184 -5.6845329626 -9.3595241561 -6.2873562709 -8.9496379236 -9.2550734902 
-8.2409696762 -8.1523541854 -7.287137087 -7.0387852924 -8.5342265639 -7.521778443 -6.247534401 -6.9741919799 -8.2254131466 
-7.8091729821 -7.8919869436 -8.3598742223 -7.5646108799 -7.5393948795 -7.6190197825 -9.6711036795 -9.3233928799 -7.8580964948 
-9.3286160265 -8.5076573811 -8.4407114809 -8.0502505176 -7.6535614619 -8.8401033133 -8.5161557802 -7.505966069 -8.4064212156 
-8.1162018431 -7.8779047817 -8.4962125685 -9.145570309 -8.4325394547 -9.4199925518 -9.2898780891 -9.1868258086 -9.2979416285 
-9.8323775918 -9.313615021 -8.9227890008 -9.9691937495 -8.9502661816 -8.8129803022 -9.9372879968 -9.1691532132 -9.0457415081 
-9.0403124414 -9.5854118528 -7.2757249098 -9.6255809867 -9.8116879615 -7.0137544969 -6.3913799645 -8.9851240619 -3.3977123325 
-7.8238870773 -7.410663325 -8.1364582612 -7.7446318402 -8.9997526404 -7.9775102676 -8.7168063326 -9.2846782244 -8.8688812032 
-7.7460927421 -9.1146227656 -8.9965050108 -6.3362989413 -5.4309782265 -5.3454166886 -6.289955553 0.42151011691 -4.9207381912 
-8.914605349 -1.4893393979 -8.0423770624 -8.7489160444 -8.0002891012 -6.8545167075 -9.6886854734 -9.4238534671 -9.6695097773 
-8.9494849931 -9.0379135845 -9.9596925317 -8.9811722022 -9.3050105263 -9.8075861289 -9.2058620274 -9.0325125294 -9.8459892594 
-9.1358239531 -9.2405292971 -9.0873338925 8.6572983177 3.4965938931 7.8269835277 9.2691801518 8.5675672667 9.5370912995 
8.8074323198 8.3023474093 5.944604325 7.6403990247 3.4886561191 8.8064652835 3.9237611966 4.1534981754 5.3675466628 
7.3750185751 8.8437570931 4.8732667794 6.2283505895 8.8562230981 7.338293319 8.9777028891 8.2603265277 9.3313428567 
9.1383840437 8.3624642163 7.5137147484 6.7654475896 7.3394524287 5.9038064264 7.3611698232 8.1477785777 8.4791435509 
5.9676048957 8.2285419336 7.8405629718 9.9240954551 8.7903313512 8.7549919429 7.7499318903 9.6436955773 8.9293225837 
9.4758368022 8.9402411243 8.6614808853 8.5021221603 6.9414535273 7.5260517441 8.62858697 8.9169895861 9.0428040839 
9.890469737 8.28091264 7.0516325315 6.3675217212 9.4151598086 8.3203964387 9.6004579912 8.6868795954 8.9621222363 
9.7504874305 9.6576261147 9.8153947844 8.7912703811 9.6755210407 9.9033977794 9.5839181279 9.6835518929 8.7791092085 
9.7705256285 9.3831755285 9.8208245284 9.8475132446 9.6930695466 9.7575745232 8.4066206678 5.7436272247 8.9675736241 
8.7549676449 7.2726773615 7.8798794192 9.5103344682 9.7013251909 9.0310323121 8.8974499742 8.9867694207 8.7938250189 
9.4168579187 9.6383814743 8.7698440829 9.7426740503 7.005618023 6.6397264591 5.730877942 5.2535972746 7.5669212689 
6.1557451724 2.742411005 5.8004938935 8.8251233958 9.7753660084 8.5919174934 6.897693273 9.4622448482 9.474888848 
9.5073519789 8.9339805693 9.9409492132 9.6111179411 9.6039738396 9.9955736669 9.8819553443 9.7542129519 9.925816635 
9.8503494329 9.9852072262 8.915226609 9.8206310761 6.2434383628 8.1411761002 6.0062421439 8.3248214809 5.9799047494 
9.6257536123 2.549429525 6.2996903758 9.7767039478 6.3936005248 7.9822208808 5.461372505 2.3498913054 9.8097078146 
2.9895962135 -2.3464818567 -2.5892282184 2.3741297228 2.9965528777 -0.28861238502 0.73964832913 -2.8729911488 -4.40968795 
-1.9704001419 -2.8120446655 -6.5428759262 -6.4306619718 -1.9372881323 -1.9043363529 -2.6834849777 0.88892628584 -4.5640587164 
1.1095236159 -4.650167534 2.7387658161 1.8205779424 -1.3008266895 4.0388737544 -0.53054056434 -1.0579099954 -2.9376524819 
-3.399775245 -4.6518474504 -4.1294018574 -6.7541622414 -3.0479163657 -4.2621278914 -3.6182747135 -4.7947560545 -5.3011148524 
-3.6544407432 -0.87448528005 -0.97709988492 -0.23880841953 -3.3578582397 -5.2637504267 -6.2879693999 -2.7646810794 -6.371048672 
-5.5716325108 -2.9275708906 -1.755449218 -2.9777152062 -2.070340248 -0.79133514199 -3.116943802 -2.5612272497 -1.5359935559 
-4.9055268763 -4.2956029436 -4.9288161096 1.7006310355 3.4118192324 0.82207804624 0.22591202661 6.9845715868 7.0168186756 
4.5546178912 -1.2802149955 4.751423289 6.6330896943 1.5653601253 4.0878203652 4.7416443542 2.5092997345 5.1551748842 
1.4828604082 0.88953476784 3.4663134159 1.2453561135 4.7857938229 6.8237417405 4.4406348808 4.4338951401 2.8130039966 
6.3251532583 8.7299810709 5.5492173735 3.2383634218 2.797361546 4.0609221405 4.4577920598 2.0479140227 4.4308609146 
4.1713301153 4.8261192629 0.74446482408 1.413918173 -0.11804352195 1.3411828119 1.3528394602 -0.54565992362 1.7763342996 
1.5560104233 -0.19712065025 2.9402194235 2.1361670666 2.013012666 2.8041810755 7.3439481318 4.1916501893 8.4447692524 
3.3978872778 8.5614343314 9.8878514213 3.9954230447 0.13445740925 4.789597575 3.5787756958 4.5707464526 4.4863015871 
8.3612002224 2.310396594 -1.8951369179 -2.2235934861 3.2082354345 4.277099757 0.032799937359 -0.1156675166 -2.9086782788 
-3.5260260987 -0.46210108314 -1.6466140588 -4.747272594 -4.5186789237 -0.67348812501 -0.69308735861 -2.7950215449 0.64734539231 
-3.9526073865 1.0828872896 0.082375980959 1.9651757088 5.5670772378 -0.30949519444 -0.9223676397 -0.025480622271 1.1786296923 
0.20732259194 -3.6608694591 -3.3411214702 -3.6890105576 -5.0560135193 -0.49303189856 -4.2548598262 -1.9290421653 -2.7191560208 
-3.87266177 -1.9127350021 -0.79978271108 -3.480338355 -0.90487837237 -0.31608441056 -5.1331108179 -5.9205375476 -2.1353122652 
-4.0010305254 -4.1081327812 -0.25565961723 -1.027809949 -1.9879445712 -0.7510458354 0.28622664946 -3.0697031554 -2.0276209149 
-0.043259696377 -3.8665016146 -3.0024140104 -3.9015715718 -1.8980263381 0.96996875025 3.2025723479 2.0593257518 3.8107884229 
4.7633331296 1.5586603513 1.6708301228 5.6534490538 4.5718992009 8.658556192 6.9943961923 1.0881984328 3.7606004006 
2.4675377798 1.692713406 0.93108136688 3.7837929198 0.99910966888 4.8603744726 4.7382630501 4.8087992737 0.063728940442 
1.5731232056 6.2074113122 -2.6689736857 7.1620171507 6.0994562751 1.9868190394 4.4459842873 4.6259709577 -0.75376857171 
4.8197313593 2.1453414643 4.0386085514 0.7921954609 1.6445394855 0.061557884578 1.6895732165 2.6755280215 0.080703212894 
-1.4164281223 0.95220160461 -0.36904353387 1.9056989494 1.6044715849 1.1672375809 
