# vtk DataFile Version 5.1
vtk output
ASCII
DATASET POLYDATA
POINTS 356 float
0.0719974 0.0670582 -0.358431 0.244471 0.290504 8.07508 0.345742 7.58001 -0.291566 
0.685402 7.22784 7.75578 7.90232 0.580373 -0.311103 7.76456 0.82759 7.89695 
7.56961 7.12821 0.166224 7.37163 7.0148 7.6344 -0.70776 -0.447976 0.602225 
-1.20564 -0.582951 1.94661 -1.39307 -0.864555 3.47779 -1.28669 -0.639796 4.90745 
-1.00982 -0.400873 6.28222 -0.519484 -0.17046 7.30098 -0.684566 0.624717 -0.731693 
-0.417039 2.01998 -1.16682 -0.637299 3.3738 -1.0491 -0.853781 4.91216 -1.01942 
-0.67345 6.16241 -0.702178 0.0943553 6.99075 -0.63389 0.0828711 7.66965 0.864663 
-0.445903 8.03337 2.15746 -0.389766 8.00132 3.51828 -0.469499 8.06992 4.90076 
-0.216302 7.94177 6.16469 0.230986 7.58584 7.17271 -0.206869 1.0136 8.28873 
-0.112769 2.15033 8.52123 -0.279994 3.47052 8.34762 -0.310194 4.79038 8.36253 
-0.167069 5.99363 8.10482 0.466307 6.75969 8.19174 8.32532 0.116357 0.636159 
8.73094 -0.355477 1.88679 8.87503 -0.504771 3.39773 8.83142 -0.406603 4.97733 
8.56125 -0.0611174 6.35941 8.16842 0.431954 7.41425 7.93988 1.22941 -0.13688 
8.23928 2.10059 -0.841351 8.3469 3.61035 -0.707532 8.43167 4.78587 -0.55652 
8.23122 6.00272 -0.123826 8.03333 6.8515 -0.370167 7.62861 7.587 0.947206 
7.67073 7.88397 2.04794 8.00873 7.91033 3.45374 7.90707 7.87269 4.95088 
7.5113 7.57249 6.05042 7.63619 7.4036 7.08549 8.0091 1.44684 7.87198 
7.9635 2.31529 8.27089 8.12717 3.61955 8.10231 8.065 4.76043 8.07857 
7.9875 5.88024 7.81756 7.42495 6.44955 7.74974 0.961658 -0.195799 -1.07423 
2.2132 -0.640954 -0.908585 3.7629 -0.64088 -1.30693 5.13595 -0.423484 -1.28458 
6.30922 -0.158292 -1.0397 7.22847 0.244156 -0.529291 1.11011 0.29474 8.57563 
2.26065 -0.0888432 8.3024 3.76062 -0.0560136 8.60845 5.16606 0.0977305 8.56991 
6.24276 0.371163 8.29963 7.27078 0.604092 8.19089 1.12656 7.5927 -0.808886 
2.07929 7.93206 -0.79816 3.76468 7.97554 -0.976238 4.99884 7.92914 -1.05344 
6.12959 7.63762 -0.781263 6.97702 7.55641 -0.308556 1.25287 7.25559 8.27763 
2.29089 7.56508 8.31593 3.72608 7.5702 8.32502 4.98149 7.4408 8.34113 
6.04562 7.31424 8.2112 6.93506 7.18782 8.02399 -1.8772 -0.140544 4.21048 
-2.07314 5.33639 1.1835 -1.77636 5.21918 6.82762 -1.18841 0.383357 6.9101 
-1.36191 0.125418 1.19959 -1.20718 2.68769 7.90479 -0.153492 6.76067 7.5644 
-1.20029 7.12163 5.46442 -1.59441 2.66962 -0.237924 -1.28314 7.23502 2.87381 
-0.617508 7.07471 0.0826077 -2.55527 5.26795 4.2138 -2.54284 2.74162 2.69456 
-2.35328 2.68314 5.61302 -0.239931 0.595129 7.72969 -1.5174 0.0275785 5.56559 
-1.65891 -0.134235 2.72809 -0.647314 0.23037 -0.0478493 -1.38682 4.04686 7.52106 
-1.20298 5.27786 7.76564 -0.926377 6.09402 7.15918 -1.66681 6.30513 6.19353 
-0.845263 7.04019 6.66875 -1.70511 4.11971 0.118167 -1.4169 5.29316 0.118848 
-2.02258 6.38698 2.13823 -1.38464 6.22863 0.755454 -1.10385 7.25542 1.38472 
-1.44958 7.33121 4.23892 -2.16805 6.33454 3.58012 -2.43008 5.29466 2.7826 
-2.0542 6.25627 4.94128 -2.24525 5.19725 5.52189 -2.58666 4.16342 2.08987 
-2.17535 2.72018 1.17154 -1.37293 0.957705 0.279631 -2.12074 0.655437 1.96516 
-2.28579 0.388704 3.41335 -2.36503 4.06397 6.15292 -1.92503 2.7231 6.83186 
-2.30233 0.515137 4.9436 -1.90074 0.796358 6.2042 -1.06003 1.09322 7.63669 
-2.77538 2.63323 4.22283 -2.79126 4.1095 4.90498 -2.76281 4.09094 3.61072 
8.64958 0.431967 4.1687 9.22162 5.14396 1.46343 9.13118 5.12622 6.58825 
8.48319 0.858553 6.69766 8.56209 0.674976 1.21295 8.41109 2.89074 7.44942 
7.64986 6.49008 7.21341 8.4592 7.01142 5.49163 8.68653 2.82481 0.192635 
8.60398 7.16333 2.87855 7.95268 6.88018 0.460821 9.22365 5.0676 4.17711 
9.33542 2.63049 2.76959 9.29714 2.69627 5.5451 7.89687 1.1362 7.4957 
8.58272 0.626229 5.51966 8.6439 0.519377 2.70217 8.31041 0.803239 0.210492 
8.88317 4.05691 7.29903 8.435 5.13388 7.32065 8.51508 6.01187 7.05695 
8.58715 6.03143 5.97916 8.15494 6.79434 6.504 9.07004 4.09407 0.584574 
8.67716 5.26943 0.4093 8.87094 6.10454 2.2367 8.76516 6.17349 0.957439 
8.45985 6.92421 1.53256 8.4076 7.03409 4.21221 9.15829 6.18612 3.56054 
9.45419 5.11696 2.85074 9.09622 6.14823 4.85394 9.32655 5.12694 5.48682 
9.27492 3.87887 2.15252 9.21213 2.69977 1.33963 8.70035 1.38641 0.532247 
9.11481 1.13708 1.98243 9.30875 0.988052 3.50982 9.08742 3.90928 6.00227 
8.99635 2.74448 6.61767 9.25329 0.987266 4.87264 8.81718 1.24107 6.13274 
8.45923 1.47492 7.28805 9.22705 2.60433 4.17594 9.5538 3.96121 4.79673 
9.63934 3.9658 3.57533 3.37306 -2.1201 1.05556 3.34015 -1.73807 6.76284 
7.98814 -0.823133 4.1888 7.85639 -0.339362 7.00745 7.86313 -0.529963 1.05686 
5.90095 -0.610295 7.93486 1.08622 -0.404845 7.76492 0.661147 -1.59691 5.54971 
5.82664 -0.918257 -0.12879 0.649221 -1.85497 2.73901 0.905623 -0.928443 -0.136308 
3.43802 -2.44497 4.18207 5.74707 -2.03606 2.7325 5.91406 -1.75151 5.54074 
7.38967 0.498149 7.57174 7.94654 -0.600479 5.6065 7.95088 -0.820897 2.65202 
7.79988 -0.119512 -0.0562447 4.67852 -1.01983 7.71079 3.35968 -0.878342 7.71334 
2.18106 -1.23582 7.38442 2.10495 -1.7487 6.13642 0.955058 -1.02266 6.75621 
4.64987 -1.61495 0.0728203 3.2642 -1.34106 -0.214488 2.08194 -2.08471 2.00597 
2.14629 -1.76495 0.497827 0.848585 -1.41985 1.25507 0.800754 -1.65779 4.1358 
2.07708 -2.47604 3.41452 3.4076 -2.50322 2.75719 2.02687 -2.31173 4.86896 
3.44703 -2.32394 5.53509 4.61691 -2.35717 2.01862 5.83121 -1.62267 0.998949 
7.24827 -0.771675 0.22377 7.47456 -1.38176 1.79413 7.61807 -1.57524 3.44654 
4.66772 -1.85396 6.15293 5.86955 -1.25536 6.80583 7.6164 -1.36504 4.99696 
7.49172 -0.968414 6.38787 7.2147 -0.290805 7.61697 5.87119 -2.05775 4.14781 
4.66362 -2.40854 4.84102 4.59981 -2.56284 3.44144 3.22563 8.98787 1.26489 
3.258 8.61731 6.78968 7.25063 8.20706 4.1064 7.13021 7.78329 6.6068 
7.29205 8.13853 1.40547 5.65735 8.12644 7.69198 1.26284 7.86465 7.66116 
0.873368 8.37539 5.50569 5.67613 8.52057 0.0279099 0.708536 8.6396 2.80614 
0.867421 8.2094 0.110377 3.15836 9.36699 4.3097 5.62476 8.92642 2.80969 
5.63272 8.86491 5.68936 6.89417 7.1559 7.30516 7.42263 8.33565 5.4928 
7.37449 8.22731 3.06098 7.56531 7.84612 0.202929 4.37534 8.25946 7.54379 
3.15485 8.36462 7.83293 2.19103 8.26413 7.21094 1.97288 8.84793 6.18874 
1.05891 8.31979 6.76056 4.37909 8.6362 0.414079 3.10665 8.79128 -0.0518278 
1.90416 9.13634 2.15176 2.06383 8.60393 0.735894 0.817673 8.50151 1.36031 
0.572373 8.73434 4.27849 1.93257 8.95592 3.54251 3.15896 9.15636 2.77559 
1.88556 9.02701 4.868 3.14786 9.00347 5.59989 4.48504 9.18004 2.1003 
5.6336 8.75899 1.24656 6.70207 8.10675 0.660703 6.77811 8.50934 2.02147 
6.79474 8.80003 3.49569 4.40811 8.85734 6.20442 5.60905 8.32305 6.66256 
6.75374 8.33797 4.99308 6.77935 8.2337 6.14815 6.70088 7.87337 7.30089 
5.72384 8.82706 4.31357 4.45316 9.01952 4.92745 4.44779 9.1939 3.5752 
1.49947 3.0966 -2.52688 6.85489 3.12981 -2.2966 4.35274 7.63738 -1.68451 
6.77602 7.32618 -1.01867 1.49095 7.28139 -1.21156 7.66539 5.60546 -1.05913 
7.64208 1.14329 -1.06485 5.7199 0.731236 -1.99734 0.277974 5.57321 -1.47277 
3.08563 0.642859 -2.16666 0.408215 0.84543 -1.34199 4.32386 3.17062 -2.97206 
2.82255 5.60344 -2.65785 5.64442 5.72668 -2.44947 7.46916 7.19931 -0.350053 
5.66901 7.5505 -1.64061 2.94308 7.8281 -1.77311 0.44965 7.41106 -0.92461 
7.50718 4.3558 -1.76864 7.68615 3.11483 -1.49538 7.17729 2.10666 -1.60231 
6.18528 1.93556 -2.33963 6.78237 0.885275 -1.60246 0.344376 4.33448 -2.04162 
0.13871 3.03203 -2.15053 2.33619 1.83207 -2.4552 0.955748 1.96207 -2.07002 
1.52377 0.712727 -1.87314 4.43441 0.66151 -2.00547 3.71252 1.80217 -2.75529 
2.96921 3.10374 -2.9231 4.99002 1.79547 -2.69208 5.6296 3.15237 -2.75589 
2.2635 4.25071 -2.7568 1.31873 5.54719 -2.2778 0.713003 6.77052 -1.37682 
2.22344 6.89163 -1.72322 3.65851 6.9992 -2.03736 6.20417 4.41916 -2.44844 
6.94615 5.60282 -1.99676 5.03548 6.98082 -2.03202 6.26092 6.80962 -1.56053 
7.24096 6.62178 -0.898277 4.32354 5.66005 -2.81335 5.04748 4.40019 -3.06626 
3.64932 4.37875 -2.83659 1.62387 3.24763 9.28092 6.72577 3.28879 9.19543 
4.27241 7.23619 9.01835 6.38614 6.92675 8.47563 1.699 6.98004 8.61789 
7.28773 5.3394 8.34905 7.43057 1.50067 8.26207 5.71797 1.14607 9.06894 
0.476497 5.52057 9.02048 3.08431 1.01844 9.07117 0.720139 1.23818 8.53984 
4.31401 3.29099 9.6253 2.94164 5.58975 9.40533 5.59846 5.50607 9.38913 
7.3104 6.8393 8.06441 5.59808 6.98313 8.58884 3.10571 7.12943 8.69161 
0.877358 6.98932 8.36373 7.33357 4.3212 8.93151 7.41806 3.20497 8.55326 
7.1923 2.24767 8.88623 6.08747 2.24223 8.93517 6.75816 1.21006 8.82935 
0.845834 4.27287 9.12395 0.502758 3.02787 9.14164 2.37324 1.97892 9.49441 
1.16546 2.11302 8.99494 1.78379 1.0445 8.82686 4.41657 1.02924 9.03091 
3.78551 2.07386 9.41226 2.96246 3.24776 9.52748 5.11153 2.12024 9.52746 
5.6761 3.25082 9.42561 2.41204 4.33303 9.63295 1.66571 5.38398 9.07503 
1.10501 6.43491 8.62333 2.39856 6.63907 8.94517 3.66941 6.46788 8.92456 
5.99642 4.40006 9.16739 6.58471 5.4268 8.9628 4.9949 6.59127 8.9021 
6.03904 6.43236 8.74127 7.07998 6.45117 8.38579 4.35293 5.54129 9.39568 
4.99876 4.39349 9.49354 3.6897 4.38743 9.57912 
POLYGONS 709 2124
OFFSETS vtktypeint64
0 3 6 9 12 15 18 21 24 
27 30 33 36 39 42 45 48 51 
54 57 60 63 66 69 72 75 78 
81 84 87 90 93 96 99 102 105 
108 111 114 117 120 123 126 129 132 
135 138 141 144 147 150 153 156 159 
162 165 168 171 174 177 180 183 186 
189 192 195 198 201 204 207 210 213 
216 219 222 225 228 231 234 237 240 
243 246 249 252 255 258 261 264 267 
270 273 276 279 282 285 288 291 294 
297 300 303 306 309 312 315 318 321 
324 327 330 333 336 339 342 345 348 
351 354 357 360 363 366 369 372 375 
378 381 384 387 390 393 396 399 402 
405 408 411 414 417 420 423 426 429 
432 435 438 441 444 447 450 453 456 
459 462 465 468 471 474 477 480 483 
486 489 492 495 498 501 504 507 510 
513 516 519 522 525 528 531 534 537 
540 543 546 549 552 555 558 561 564 
567 570 573 576 579 582 585 588 591 
594 597 600 603 606 609 612 615 618 
621 624 627 630 633 636 639 642 645 
648 651 654 657 660 663 666 669 672 
675 678 681 684 687 690 693 696 699 
[...]
CELL_DATA 708
SCALARS scalars double
LOOKUP_TABLE default
-4.4712336703 -1.811207981 -5.7371637753 -5.3087210117 -6.5493650439 -6.5431555269 -5.3152801039 -5.6686779953 -5.0675623217 
-5.499292371 -5.3053381661 -4.5773677546 -6.0539220652 -1.1001083012 0.24111340764 -0.74013890771 0.56548831096 1.6355633957 
2.3786279087 -0.22844160148 4.2272905069 3.870056436 6.4188515385 3.7767481431 7.0274687789 6.4523750746 6.6627357671 
5.4690973406 5.5367068275 4.5293208025 5.509412671 4.296185081 6.0046124211 -0.35259365336 -2.9038938851 2.0407045442 
1.2178891179 -0.95203694789 2.0834921229 4.1986714924 6.9231570193 4.4775267278 4.6730329031 7.4195497379 8.6265875548 
8.4013693604 7.9101503463 6.8758203616 4.0719416658 3.6660930387 3.19855168 2.4575332174 5.8294915667 5.6278868048 
6.809416115 6.7213527528 6.802390886 7.9656727728 8.1962309875 2.3299100137 2.9916419771 3.0403951303 6.1954181686 
2.960555615 2.7845584919 3.1216473454 3.9102901458 5.9577528205 6.3736983576 5.3702093235 0.82512541265 0.23187062009 
-1.279396606 -0.0046331993691 -0.15431511834 -8.1103537571 -4.652795215 -1.4943717951 -5.9994657876 -5.8837939742 -5.7871210895 
-6.3232511181 -4.8119231615 -1.1453051548 -2.2695631011 -1.8724054395 0.74038524438 -1.3788187082 0.47495042533 0.27728776354 
-1.2268630549 -6.1644900192 -5.1808414889 -6.3804655812 -1.875895336 -3.6971944336 -4.0053187185 -5.6377081735 -6.8852526829 
-1.673934149 -1.201393931 -1.8165623463 -5.7361410608 -1.1259840745 -1.5519111181 -2.1561009413 -1.315868065 2.74487323 
3.2651706692 2.7392661604 -0.80893262022 2.1327703174 2.558527364 1.9825451279 1.8564040518 -0.56196644163 -1.451934007 
-0.0060113526766 -2.2719323595 2.6657620953 -2.1603815905 1.5522248888 -2.866568886 2.2385461592 -0.58278610827 -1.9361510718 
1.6947380818 -1.8612740792 -0.60351076263 -2.8377567175 -2.9645423924 -2.2903551301 2.7715177685 3.1486142726 -0.54023763514 
-2.3423771772 1.752996599 0.53382000869 5.4614299795 6.4357464874 2.8228445011 4.5617417844 1.6536388161 7.0898239849 
6.4150361573 0.80055011463 0.96469889423 6.8392834345 1.3915211247 7.3507332364 0.99989992433 -0.32503428917 -0.74083700487 
2.2932825126 -1.2944125875 -0.0020391495693 2.4866332343 3.8167011852 3.3058802605 5.7821860507 4.108447946 6.9422569938 
5.8425328838 5.9565311066 6.8602191037 6.8355154636 5.2531619338 1.7770290286 1.9377435772 2.7605394502 8.4695194856 
2.4956482778 5.2841442578 6.602549734 3.6128856947 5.2851832087 4.6392631091 4.3730366468 1.5316454768 3.9214634611 
3.1898209668 1.6890778884 5.7866770499 4.3413946279 0.85850603242 6.0386134777 5.7471031828 6.3755730562 -0.31088779021 
-1.3901231461 0.059654010347 0.33365374525 -6.2172659239 1.2946430104 -2.8973822444 -0.7594184586 -0.31728706534 -2.5366087253 
-2.699397082 -7.0765018119 -4.6345938514 -0.98836772045 -0.91221604205 -1.8131238204 -1.1580587409 0.65725831377 -2.3776748046 
0.046856111583 -1.6205766949 -1.7137032539 -0.93775448732 -6.2632571584 -0.2301728338 0.20426697218 -2.8698282175 -3.6630138861 
-7.059925807 -0.38374685086 -2.0016721819 -2.1556277309 -7.50902312 -0.056603201753 0.1858648134 0.3372082998 0.24842822831 
-1.1862245376 2.3990145799 -0.30985371411 -0.73361258043 2.6260208645 -0.48954753855 -0.0035142238246 3.1976525773 -2.609892182 
-2.1870946837 -2.6223181728 -5.5264712643 -7.4100906808 -7.6222173297 -8.6773837832 -7.6461660535 -9.1825722023 -5.3877237474 
-6.9860175285 -9.0200395127 -6.6804492319 -6.9422228075 -6.8703272966 -3.6316098101 -3.0310345031 -5.3723345529 -7.3857750974 
-7.1720325802 -4.2606381245 -6.2642764833 -7.0120475127 -6.3141915404 -9.0465454395 -7.5896998056 -8.3927496634 -8.6166883357 
-8.0187686379 -8.5763818709 -6.6399506162 -8.0502030157 -7.5219606913 -7.4148445699 -6.0527512775 -6.2337262658 -7.0306276292 
-8.0483182333 -8.0322537551 -8.5314787134 -7.6150872661 -7.6791491958 -8.3055639258 -9.6032772027 -9.0338817463 -8.5342614714 
-9.0828106759 -8.4583119181 -8.5814829489 -6.1473819183 -5.5222856343 -8.6501110032 -8.4101760842 -7.6118660067 -8.5273858117 
-7.7453265197 -8.0011211596 -7.6777392865 -8.981116243 -8.3602370715 -9.2465972573 -9.0943788287 -9.0900091829 -9.5995094743 
-9.9916535651 -9.5240838428 -8.7721780732 -9.9472477025 -8.9105461508 -8.9099026677 -9.9304321955 -8.8430607214 -8.7067052426 
-8.5901271327 -9.3054133881 -7.8385304464 -9.0333962293 -9.0346039154 -4.791020641 -6.7637499987 -9.4869194586 -5.6835801096 
-7.7016093169 -6.9048342781 -5.1459095108 -6.1881416406 -9.4634083782 -8.2812614394 -8.6932138962 -8.735249469 -8.9808483259 
-8.5351779807 -8.6763241072 -9.1053512306 -6.5716089931 -7.0695509614 -5.3180835555 -4.2402967066 0.1200136976 -7.4805333328 
-8.2288521987 -1.9942441187 -8.2815599511 -8.9791194284 -8.1417671621 -4.9359032429 -9.4027179209 -9.6695523166 -9.4159871109 
-8.9027554007 -8.9152324502 -9.9584427523 -9.099938925 -9.2909511866 -9.9635187718 -9.7552214805 -9.8924951275 -9.933766976 
-9.187273374 -9.0886011328 -9.4164005961 8.6132580682 8.3662502093 5.2927157393 3.9151651259 9.2389703236 9.1459686916 
8.2776298453 7.7937271697 8.4889877298 8.1873101878 6.2498265315 8.7305848737 0.42928418695 0.10116680392 7.4217778425 
9.5891581364 6.2674052572 5.8638183436 6.9335050052 5.2279881484 7.2066102871 8.5755363268 8.6943575552 8.8817162702 
8.4120196494 9.4279855166 7.6412015401 5.3474293957 7.6066897718 6.9382805698 9.5022050676 8.3686527599 7.5354423784 
5.9378077877 7.2430074268 6.9788946381 9.7090631268 8.9017933722 9.0200359395 8.1031034673 9.21555942 8.9244481636 
9.5354378759 8.9477118333 8.7507534632 7.1170527944 7.0520496048 6.9982765613 7.2819663156 9.0485065341 9.1182656652 
9.5762422771 8.2732507996 7.1330695008 7.6429686846 8.7157151244 9.4650099897 9.3875700939 8.2907324001 8.2041021337 
9.9329046965 9.6178116812 9.8827536206 8.7152120743 9.536910467 9.5154168452 9.8849749149 9.5727012359 8.7350742708 
9.7575590557 9.7965878089 9.4884585525 9.811359382 9.559959108 9.433626411 8.6234476895 7.0811021851 9.5757329622 
8.6970122683 8.1270531995 7.6050927439 7.5885797921 9.062853006 9.5565349675 8.7883712979 8.7989512598 9.1286227748 
8.5456205806 9.7975018655 8.8413526879 8.8542718409 8.4259860543 7.1599333327 9.9373732603 6.218639784 0.75700246885 
7.4939468516 9.4520675028 2.5919508696 9.4221038175 8.3794301218 9.3013743576 7.3664202136 9.0418009017 9.9555255764 
9.2418684288 9.9070023577 9.4933624422 9.5441841924 9.9036748365 9.7563686415 9.8918577817 9.9061644301 9.9968744307 
9.715801674 9.6694134703 9.8980718209 9.704029749 4.6435616331 8.0949049342 5.3039609604 9.2032931464 6.847409153 
9.0476420911 8.8319493033 6.1760781985 9.8913932168 6.3918611418 6.6020335788 5.7293197506 5.0610090806 9.3724607699 
-1.0277624354 -0.58555494925 -0.27517639997 3.3054699642 2.7443982282 0.02475686652 0.21439649719 -3.104247975 -1.8094834413 
-3.834937394 -1.9601694089 -5.63760964 -5.747200341 -6.0124074784 -5.9965796227 -4.7639280323 -2.627906556 -1.7052613487 
-2.0300013658 0.275651161 2.8011240881 2.5135892732 1.2249435747 3.3548323306 -0.79878573435 1.7339864551 -2.3913051784 
-3.4204895248 -3.3068187277 -2.7327073243 -6.1500636257 -4.3205248327 -7.2834744573 -4.8978540659 -6.1472875204 -6.2798192237 
-2.5877322983 -2.5824015577 -4.4208439137 -0.86195377942 -1.8604630244 -5.3751009179 -6.0482985726 -3.5178545435 -5.1285273666 
-5.0789065878 -2.2071821264 -1.438902097 -2.4294046868 -3.6689012816 -1.2169464942 -1.5949885307 -1.8441954955 -1.770313311 
-5.2982060219 -4.9654618316 -5.314974434 0.43239680164 3.1556139245 1.7199328632 0.94455495143 5.5922120884 6.3423431823 
5.0349186681 1.6397083039 4.5906883878 7.0930194258 1.1808152266 5.9266333428 4.9925465562 2.735070514 5.0000544241 
1.3074961732 1.4364282632 2.3833300087 0.46842479191 4.5146327046 6.9897379214 6.8943960514 2.028149368 3.885456138 
5.6857451179 2.4584407634 8.5089558244 5.7812434533 3.9313493346 4.8047050522 5.3996132997 4.7569434813 4.0396135447 
4.5744603589 5.0508950118 1.9602997368 0.67311412896 -1.6795319985 0.0038862733409 1.0005693607 0.8905962128 -0.20093305427 
1.0289287019 0.19969024091 0.7350443822 3.20100495 1.0344931598 4.6531412895 6.9974837438 4.853021525 6.342663907 
4.7175050827 9.2319893889 6.8301608255 4.6230894908 6.4534558874 5.4840909515 6.0735006157 3.9827951415 6.8631509499 
7.7533470869 6.794896387 -1.9805458757 -2.1256425995 2.3115587905 4.2878492708 0.45614344976 0.543967988 -2.6626909367 
-3.2345386896 0.44161552992 -0.73232263796 -6.1189139749 -6.1367349467 -1.6407005289 -1.774898633 -3.3845942834 0.90927763233 
-3.9597433474 1.2727645575 -1.7943672518 2.2397185751 6.0342234959 0.50689329967 -1.0441531978 -0.22119185144 1.8824236966 
-0.74693306801 -4.9982347104 -3.1539816908 -3.5926690131 -4.7623461958 -0.76335176262 -3.6947017743 -1.7122836206 -3.8728772825 
-4.7235795477 -2.9207276353 -2.1346016403 -3.7859041278 0.022824229051 -1.7836862501 -4.3524297793 -5.4208898237 -3.5311833702 
-3.7880911533 -3.9763338663 0.58397047354 -1.4378606883 -0.54594632865 -0.73114928672 0.16449987041 -3.5588391631 -1.883042757 
-1.3764138877 -4.2012003172 -3.2607878715 -3.7763282152 -0.86193339574 0.7155741124 2.8513620906 2.6684412017 2.6829738016 
4.1644762203 4.3189480877 2.06449061 5.5304488647 4.0060948565 3.812063459 3.0903293139 2.5969883559 3.964117391 
2.5435409335 1.4276528865 -0.42504820109 4.0720770734 0.93033843734 4.9348324122 5.503244361 5.1401463845 4.0628959659 
0.78215581391 4.6756966565 2.7469945965 1.3091738897 -1.2578938452 0.9902051946 3.9531333764 3.5600715948 -1.4443506608 
4.1704512962 4.6599019692 4.3803153381 -0.78315017223 1.5952760566 0.27635851813 1.2620503891 1.6399521757 0.0088514127056 
-1.8423088408 -0.739354744 0.78722869189 1.5031371102 0.89285598411 1.2059060065 
