# vtk DataFile Version 5.1
vtk output
ASCII
DATASET POLYDATA
POINTS 356 float
-0.133942 -0.165551 -0.583049 0.160356 0.324641 8.09818 0.287126 7.52503 -0.296363 
0.608663 7.07445 7.8134 7.95154 0.425301 -0.295292 7.6178 0.860308 7.79204 
7.56128 7.1754 0.09269 7.27091 6.96738 7.57735 -0.880694 -0.607812 0.536289 
-1.23632 -0.683405 1.94446 -1.45866 -0.900412 3.46593 -1.3798 -0.717961 4.8785 
-1.08617 -0.497731 6.32771 -0.482585 -0.073646 7.23022 -0.745402 0.762679 -0.762758 
-0.499477 1.8995 -1.32558 -0.820605 3.38102 -1.2373 -0.844406 4.83487 -1.02449 
-0.765109 6.18182 -0.752332 0.0467308 6.84621 -0.607355 -0.00379592 7.75249 0.76237 
-0.502234 7.93902 2.02102 -0.440367 7.97919 3.48182 -0.469628 7.99369 4.86435 
-0.211778 7.89713 6.06959 0.302464 7.40206 7.00344 -0.392831 1.00896 8.25337 
-0.0698212 2.12008 8.5289 -0.429079 3.49256 8.5403 -0.246039 4.82089 8.17621 
-0.282022 5.95895 8.17151 0.47127 6.43475 7.9127 8.30888 0.0482869 0.464495 
8.56784 -0.311671 1.81055 8.85063 -0.505791 3.38705 8.73872 -0.370743 4.92847 
8.52575 -0.0696773 6.31583 8.10561 0.411078 7.28325 8.11785 1.13954 -0.366747 
8.20112 2.10813 -0.829169 8.37044 3.57063 -0.755237 8.34259 4.74088 -0.53346 
8.36287 6.04449 -0.29458 7.516 6.66593 -0.127181 7.5857 7.53092 0.888323 
7.65095 7.64178 2.09893 7.77864 7.8674 3.54896 7.79136 7.89512 4.78983 
7.64788 7.63607 6.07857 7.36303 7.27043 6.98393 7.76113 1.39547 7.71079 
7.9583 2.27337 8.16531 7.9843 3.58228 7.98008 7.95002 4.67999 7.99838 
7.94342 5.81939 7.84382 7.42023 6.42755 7.72948 0.905923 -0.293903 -1.18336 
2.19428 -0.752555 -0.959821 3.73525 -0.642734 -1.26371 5.07493 -0.469563 -1.26365 
6.17252 -0.131748 -0.943588 7.25592 0.142168 -0.689948 1.07146 0.157548 8.39617 
2.27813 -0.075261 8.33303 3.78269 -0.138356 8.58075 5.20056 0.0102947 8.43298 
6.25055 0.349336 8.31548 7.25826 0.546321 8.17021 1.12649 7.46169 -0.728498 
2.07425 7.91408 -0.858793 3.699 7.99151 -1.12975 4.95934 7.93154 -1.13757 
6.14071 7.65218 -0.897504 6.85582 7.45479 -0.326107 1.38947 7.09067 8.00206 
2.36787 7.52277 8.35829 3.71665 7.59175 8.47236 4.94761 7.36402 8.3954 
5.92308 7.24483 8.1826 6.75022 7.07585 7.94114 -1.79677 -0.123014 4.13239 
-2.20776 5.27397 1.15216 -1.80532 5.18252 6.76961 -1.1488 0.396409 6.8122 
-1.37238 0.196059 1.22296 -1.05592 2.70465 7.72538 -0.303395 6.83535 7.65632 
-1.1956 7.02925 5.47646 -1.43042 2.69088 -0.0863438 -1.37193 7.23232 2.82583 
-0.53319 6.92362 0.0962642 -2.58757 5.19399 4.24485 -2.69829 2.71239 2.66846 
-2.4013 2.68011 5.53869 -0.234943 0.588229 7.7188 -1.55219 0.0205634 5.56077 
-1.79294 -0.168469 2.66966 -0.570783 0.322235 -0.00664682 -1.33192 4.09216 7.48382 
-1.21148 5.264 7.79447 -0.969418 5.95284 7.00127 -1.71468 6.22489 6.11585 
-0.859241 6.99038 6.65502 -1.88734 4.09044 0.109383 -1.35629 5.22688 0.154404 
-1.89446 6.18168 2.11819 -1.60097 6.26455 0.697159 -1.11106 7.16655 1.39105 
-1.44669 7.21097 4.22183 -2.11835 6.32683 3.52797 -2.56778 5.29268 2.81283 
-2.04822 6.25453 4.8548 -2.32133 5.16659 5.47908 -2.30024 4.08148 2.1487 
-2.30871 2.69175 1.09363 -1.49295 0.802884 0.198347 -2.06481 0.56571 1.89356 
-2.44345 0.299918 3.39943 -2.34965 4.05151 6.04429 -1.89627 2.7102 6.75524 
-2.33473 0.448491 4.92756 -1.87257 0.82351 6.20957 -1.0146 1.07241 7.52565 
-2.70014 2.66031 4.23868 -2.73485 4.04609 4.83495 -2.74229 4.04409 3.51919 
8.83367 0.346988 4.15406 9.25241 5.14553 1.40995 8.95181 5.0517 6.55612 
8.54802 0.810069 6.69816 8.62805 0.638804 1.23675 8.40058 2.86649 7.4001 
7.77084 6.5385 7.21146 8.38158 6.98281 5.38367 8.58208 2.79848 0.195199 
8.57782 7.12609 2.90028 7.9974 6.67691 0.479247 9.13375 4.99356 4.15594 
9.34809 2.57129 2.73879 9.21828 2.63841 5.48356 7.82407 1.1287 7.46903 
8.43311 0.610568 5.45745 8.7134 0.443093 2.66332 8.08023 0.912337 0.208018 
8.80921 4.00492 7.23348 8.28301 5.07036 7.27692 8.44859 5.92305 6.98838 
8.67467 6.07195 5.96092 8.0824 6.74606 6.51804 9.08004 4.05282 0.520017 
8.60977 5.19732 0.410675 8.72349 6.10513 2.22203 8.68226 6.08057 0.905803 
8.4136 6.9583 1.48759 8.40449 6.94589 4.18138 9.09547 6.11061 3.57035 
9.42782 5.13357 2.81225 9.07338 6.09196 4.78597 9.30955 5.08312 5.44079 
9.14214 3.87679 2.12257 9.22203 2.66155 1.27162 8.80574 1.27354 0.415518 
8.92993 1.1946 1.99086 9.06109 0.986725 3.46189 9.04107 3.90475 5.95339 
8.92091 2.71514 6.52238 9.11771 0.984864 4.78937 8.78963 1.22006 6.0497 
8.60163 1.46646 7.30367 9.16274 2.58503 4.14064 9.50797 3.9136 4.73907 
9.52165 3.92567 3.5337 3.26459 -2.08587 1.04561 3.36222 -1.75624 6.74344 
7.93373 -0.838441 4.15075 7.6363 -0.157729 6.83658 7.60319 -0.368448 1.17458 
5.89686 -0.665504 7.89537 1.03579 -0.456313 7.6136 0.677828 -1.58982 5.5674 
5.82277 -1.07079 -0.187034 0.684645 -1.88833 2.66016 0.981369 -0.781515 -0.0620331 
3.45029 -2.50278 4.07268 5.74882 -2.04841 2.64013 5.81734 -1.7751 5.5491 
7.43832 0.419264 7.62101 8.0588 -0.734885 5.61694 7.90217 -0.795329 2.65111 
7.65663 -0.0376865 -0.0859317 4.5949 -1.13207 7.46363 3.2341 -1.00155 7.79103 
2.1309 -1.22246 7.23965 2.02379 -1.92232 6.13459 0.955499 -0.914405 6.61878 
4.61223 -1.52907 0.011198 3.27364 -1.37674 -0.206865 2.06339 -2.1211 1.98156 
2.05041 -1.72669 0.545228 0.691478 -1.46076 1.15518 0.678793 -1.9021 4.08123 
2.08789 -2.34084 3.46514 3.33011 -2.46549 2.67888 2.07516 -2.29473 4.7556 
3.36793 -2.21236 5.4575 4.54314 -2.25637 1.92563 5.86421 -1.53074 1.05412 
7.22178 -0.75604 0.257238 7.43947 -1.31307 1.7783 7.56101 -1.54288 3.39442 
4.64791 -2.01803 6.05719 5.79974 -1.27373 6.73477 7.60956 -1.40698 4.98153 
7.47082 -0.944898 6.31615 7.11509 -0.246833 7.50499 5.77975 -2.18052 4.10912 
4.55497 -2.33948 4.74498 4.57805 -2.55625 3.42619 3.10394 8.95624 1.22918 
3.25311 8.79264 6.84473 7.33852 8.32811 4.16903 7.03477 7.67223 6.53902 
7.2774 8.04335 1.42687 5.45516 7.82627 7.59802 1.10575 7.83773 7.55177 
0.833119 8.44553 5.49331 5.67761 8.6488 -0.0415858 0.632611 8.65101 2.80834 
0.908943 8.08099 0.142838 3.17856 9.18014 4.29123 5.52314 8.92628 2.74421 
5.50856 8.6017 5.51099 7.08231 7.31897 7.50981 7.17077 7.96555 5.48677 
7.42301 8.38695 2.78481 7.36563 7.68342 0.205873 4.33581 8.23865 7.44755 
3.1288 8.07912 7.59884 2.12572 8.24644 7.24776 2.0133 8.72327 6.10511 
1.00895 8.23818 6.69492 4.36308 8.59629 0.428364 3.06533 8.72543 -0.0828996 
1.79195 9.07043 2.05048 2.01927 8.56624 0.666728 0.78841 8.41856 1.39925 
0.583063 8.6901 4.23535 1.89708 9.00161 3.47835 3.10492 9.21705 2.729 
1.89116 9.03114 4.83925 3.14271 8.82536 5.56496 4.38913 9.18704 1.99662 
5.63961 8.67677 1.31723 6.72842 8.05801 0.591878 6.64493 8.34048 2.08247 
6.76498 8.45525 3.48465 4.44155 8.84956 6.1206 5.61342 8.39672 6.73912 
6.78925 8.52613 4.86084 6.66838 8.32752 6.13399 6.62811 7.71918 7.24464 
5.67096 8.80495 4.28114 4.39805 9.0299 4.85028 4.39423 9.03463 3.41839 
1.35521 3.04625 -2.72793 6.80871 3.0998 -2.4062 4.37158 7.50872 -1.67216 
6.75051 7.21294 -1.02609 1.32444 7.41348 -1.4115 7.53409 5.51833 -1.02997 
7.53206 1.15613 -0.911774 5.6619 0.657465 -2.12544 0.18341 5.54502 -1.54557 
3.07465 0.559867 -2.17798 0.403734 0.841098 -1.31966 4.32309 3.11832 -3.18917 
2.82159 5.54422 -2.78274 5.66919 5.5425 -2.37955 7.52408 7.1586 -0.521785 
5.60574 7.43882 -1.51802 2.87859 7.70282 -1.74914 0.413286 7.35894 -0.95834 
7.50709 4.33694 -1.8905 7.53066 3.08258 -1.43998 7.20877 1.97939 -1.75678 
6.064 1.90302 -2.24831 6.78335 0.832899 -1.6481 0.318043 4.33299 -2.26227 
0.25641 2.9899 -1.85278 2.31212 1.77318 -2.47588 0.884163 1.90041 -2.27811 
1.49663 0.713548 -1.87202 4.4121 0.664567 -2.11524 3.67626 1.82668 -2.77365 
2.8984 3.00724 -3.06394 4.98149 1.84775 -2.74211 5.5422 3.12347 -2.72767 
2.29373 4.19443 -2.69251 1.2618 5.56844 -2.40219 0.623911 6.70987 -1.52183 
2.21132 6.8297 -1.75558 3.57958 7.03229 -2.09379 6.13842 4.37231 -2.55109 
6.8432 5.56447 -1.98881 5.00601 6.98699 -2.05538 6.14233 6.8378 -1.5246 
7.34744 6.66493 -1.04489 4.31202 5.50536 -2.63929 4.9334 4.37391 -3.0212 
3.55214 4.27635 -3.04073 1.58221 3.12589 9.37135 6.66526 3.30724 9.14341 
4.27765 7.00687 8.64486 6.40195 6.76369 8.29012 1.68883 6.88534 8.37833 
7.27407 5.27049 8.29368 7.33027 1.50395 8.13497 5.62221 1.08356 9.02914 
0.601565 5.32448 8.60523 3.06173 0.916712 9.12796 0.647582 1.07756 8.57756 
4.32377 3.20091 9.44726 2.93738 5.48178 9.16723 5.51664 5.31533 9.20604 
7.08921 6.64855 7.8207 5.55991 6.92323 8.58975 3.05756 6.97617 8.64931 
0.709874 6.99287 8.36482 7.20536 4.27987 8.85336 7.37828 3.17924 8.53963 
7.1402 2.29356 8.82501 6.10249 2.24957 9.02192 6.68701 1.22993 8.66695 
0.616226 4.28766 9.0909 0.626033 2.95591 8.89868 2.34296 2.03325 9.231 
1.08317 2.03737 9.22948 1.70376 0.986803 8.84342 4.34091 0.980798 8.96775 
3.64707 2.02703 9.49593 2.93352 3.26475 9.69795 5.05767 2.012 9.33776 
5.59432 3.23847 9.57135 2.3089 4.32662 9.4483 1.56791 5.39744 9.08818 
1.08297 6.38736 8.68593 2.32437 6.57967 9.07495 3.71723 6.61732 9.11253 
5.9574 4.32995 9.09239 6.61423 5.4485 8.88011 4.90669 6.52818 8.86942 
5.93451 6.31518 8.68189 7.00687 6.39058 8.40472 4.36178 5.41384 9.30918 
4.93138 4.34196 9.59859 3.67125 4.38607 9.63551 
POLYGONS 709 2124
OFFSETS vtktypeint64
0 3 6 9 12 15 18 21 24 
27 30 33 36 39 42 45 48 51 
54 57 60 63 66 69 72 75 78 
81 84 87 90 93 96 99 102 105 
108 111 114 117 120 123 126 129 132 
135 138 141 144 147 150 153 156 159 
162 165 168 171 174 177 180 183 186 
189 192 195 198 201 204 207 210 213 
216 219 222 225 228 231 234 237 240 
243 246 249 252 255 258 261 264 267 
270 273 276 279 282 285 288 291 294 
297 300 303 306 309 312 315 318 321 
324 327 330 333 336 339 342 345 348 
351 354 357 360 363 366 369 372 375 
378 381 384 387 390 393 396 399 402 
405 408 411 414 417 420 423 426 429 
432 435 438 441 444 447 450 453 456 
459 462 465 468 471 474 477 480 483 
486 489 492 495 498 501 504 507 510 
513 516 519 522 525 528 531 534 537 
540 543 546 549 552 555 558 561 564 
567 570 573 576 579 582 585 588 591 
594 597 600 603 606 609 612 615 618 
621 624 627 630 633 636 639 642 645 
648 651 654 657 660 663 666 669 672 
[...]
CELL_DATA 708
SCALARS scalars double
LOOKUP_TABLE default
-4.6260422842 -1.9413728729 -4.9017446783 -4.26500853 -6.3012232102 -4.7422376635 -3.8911491163 -6.2097229143 -5.7728246723 
-5.0028106155 -3.4304746424 -3.6836223995 -0.59885372696 0.5837071368 -0.44798331063 -1.8873177894 -1.8499555336 -0.4291853033 
-0.078832585117 2.8354339555 4.6035115697 2.5454581315 6.4955128627 2.9517406666 1.9488588001 6.5862484033 6.8472186597 
8.4033179757 8.4241185281 5.0620090408 6.3999642046 2.6610498629 6.6188082239 -1.4911116857 -0.5966463311 3.5311803409 
-1.8997256504 0.81975905779 3.8837957622 4.6408923246 5.3045960343 6.5736138042 5.523858124 7.7841141284 6.989055059 
6.8099648255 7.3740101913 6.8828647382 6.5967279828 1.6125919778 0.58578815553 1.3993909828 4.9533992611 7.1566888221 
6.7590757877 6.6869167786 5.351003246 7.871881604 7.8706255364 4.9444506001 3.9027393681 4.9687619011 6.425118316 
3.4738444813 2.9751465772 3.664019159 4.1956737524 6.2542635518 6.2063114575 5.6565929884 -0.89781309267 -1.7564816964 
1.8666595805 1.5426166495 -1.2982924518 -5.6346097662 -4.2298427661 -1.8164798911 -7.9649052406 -5.4415992797 -5.9182884633 
-5.8892328888 -6.7203916013 -1.9692323527 -0.63333542093 -2.3244240774 0.2319144664 -1.0682744203 -0.36382743245 0.29542567475 
-1.2861368515 -5.7639453062 -3.7169111137 -6.0839214058 -1.0723200142 -4.1374023119 -4.3649034581 -6.4029136395 -7.2652758244 
-0.98731741512 -1.2230407691 -1.7231474009 -7.6351524631 -0.90403958046 -1.0645766303 -1.3704603131 -0.75905946067 2.0613326716 
2.2992044187 1.7493522636 1.5996953352 1.3602514281 -0.99840221156 -0.41234413382 1.2999601081 -0.31601940409 -1.2066168749 
-0.27485327641 -4.0229431024 1.4477551946 -2.4991266035 2.4960950042 -2.8007519681 -0.49088810838 -2.307863895 -1.1563477563 
0.084752281543 -2.0086327545 -2.033350557 -1.7949677891 1.3499419651 -4.9015312356 3.1905074825 3.539543854 0.5870116464 
-1.5158148496 0.65845435796 0.084859985006 3.8753972621 5.6938270471 4.6585200819 5.108795307 3.6456880801 5.3815387478 
5.6078690009 5.3773308176 5.3640112795 6.0804327477 0.86852882505 5.7254626841 0.050686820668 -0.9561077054 0.77597571632 
2.8543493282 -2.4765205251 1.1807468973 3.1619401778 5.0587315021 2.299527912 5.1879169091 3.1398352963 7.8852489323 
5.5281136228 5.1650251877 7.8085655018 7.9594330673 6.6888332682 2.2324700663 0.65757695747 0.3809815489 1.9595764561 
7.7430473602 5.4288242908 6.2352203379 3.0041405554 6.3771318891 5.5186759811 5.4364728793 1.516433927 4.7217136907 
4.560547684 1.3625083574 4.0458461927 3.9814236532 0.44100797778 6.1495163406 5.4130743052 6.268525188 -1.1490531452 
-1.957145543 1.1946867816 0.85882685118 -3.430626932 -2.2926101243 -3.7735599555 -2.2907440278 -8.2022494234 -2.3864905298 
-1.462908513 -3.8454909568 -3.765131929 -2.4023490437 0.53325787529 -2.3590317235 -0.17803383324 0.33342953806 -2.1835077733 
-0.13630681731 -1.7431839499 -1.3487327922 -1.4005416499 -6.8214637503 0.82176026339 -1.4295449844 -2.5465197645 -1.7386040375 
-5.6253786668 0.89808382187 -1.7227005892 -1.4051896488 -3.7289450697 -0.44112585382 -1.1835094158 -0.45366487003 -0.025341325217 
-0.84885952049 2.5130302219 -0.5664117991 0.29249749228 2.1112386644 -1.547910629 -0.78291362727 3.3413918946 -2.0092182717 
-2.3842056973 -2.5504423532 -7.4375651243 -4.6738677943 -7.3592243643 -7.2069627377 -7.2090015549 -9.0172843248 -7.4584117749 
-6.9872809515 -8.9104265554 -5.2838247677 -9.2275144654 -6.0767319286 -6.1062670492 -6.0971458135 -6.493529824 -8.059540508 
-7.0574327882 -4.4140569004 -6.3869053993 -6.1218605192 -6.83971267 -8.2991670162 -8.0800807041 -7.1184913967 -7.2982622144 
-7.8618031864 -8.0606261852 -7.3814401811 -8.5056408183 -7.7869768678 -8.1231791112 -6.5916789937 -6.562429845 -7.3578825968 
-6.6138604413 -6.6302092898 -8.6999081404 -7.880140458 -7.8287107232 -8.2123459588 -9.4996797236 -9.2166436514 -7.6518828022 
-9.2263515133 -8.619999673 -8.2145822253 -8.7755448215 -8.3993027858 -8.9264502996 -8.5970628281 -7.6211450523 -8.6875826078 
-8.3106059823 -8.0788757379 -8.932034859 -8.8112754387 -8.6897176143 -9.6302008289 -9.066085227 -8.8072383675 -9.6539628153 
-9.9372851974 -9.7224684013 -9.1586352638 -9.7816739144 -9.4193966927 -9.6318200172 -9.905381258 -9.1655080073 -9.5342660734 
-9.58135308 -9.2986018987 -8.9614339485 -9.0774946648 -9.0179537392 -6.9186890932 -8.0888438389 -9.324123837 -6.0837484073 
-7.4601329521 -7.1863757959 -5.2109914919 -3.1659648076 -9.2391327627 -8.887646413 -8.8444571436 -8.3871522488 -8.6418450509 
-8.7899219322 -8.2132231663 -8.9421547629 -7.0129809351 -5.5487135119 -7.1408447553 -4.6732309274 -3.4956472519 -4.8108124241 
-4.6988892316 -4.5693315797 -8.2173640468 -8.8562951306 -7.8422907623 -4.7952078101 -9.2832350285 -9.4863507007 -9.3022054935 
-9.3543968152 -9.424022571 -9.7830261099 -9.7121446043 -9.4082710071 -9.9798485789 -9.7345420118 -9.7933389495 -9.8555513454 
-9.3449729794 -9.327298249 -9.6430074347 7.7310855721 4.9318294272 8.1716992423 9.091149813 8.2527532443 7.0660660407 
8.0820163381 8.207636693 4.0737940475 8.1029234791 5.8598812032 8.5533707632 3.8331210106 3.9088199416 7.2231809415 
7.2717561314 8.5775209898 7.7467554448 7.8226342071 8.4353600122 7.7833858826 8.748157928 8.7374076124 9.2304728796 
8.9669218388 9.0859762304 6.3287263291 5.880530359 6.7431113472 3.3036381622 7.3096293123 8.1134704823 8.3100195403 
4.4116445021 6.9781659382 6.552058239 9.7041281497 8.7425951939 9.2530510704 8.5756365222 9.2175795975 8.7535746562 
9.219809211 8.7019365484 8.4734104195 8.3286164724 7.5777697105 8.070718394 8.3542181943 8.8585152234 8.9676305844 
9.5240493923 8.3944620282 7.6862686435 6.9118407923 8.6956258987 9.0742216876 9.5156569702 8.3477571252 8.2814611978 
9.84990424 9.8711993578 9.8840625635 9.042146849 9.6330546853 9.9668580677 9.7192454768 9.920116769 9.0446619074 
9.6769017834 9.6986157228 9.3471580178 9.9862120155 9.410320513 9.1860554734 7.3916578726 7.3103090476 9.0608874555 
8.3398217873 6.7024042991 8.2743022648 9.9644254903 9.4735228959 9.0792148373 8.7059574375 8.988715797 8.8043331925 
9.4606634908 7.9443046462 8.9762110106 9.7594294688 7.7101494265 6.3973056462 6.7921525029 7.7837298069 7.9274456648 
6.1538132958 4.4051811019 7.2945792311 7.8687998527 9.7715791976 8.2589963716 9.5921253382 9.7226359098 9.4228935216 
9.6190106166 9.4840548749 9.9913162936 9.6335149273 9.8656043231 9.8206503881 9.9122933709 9.8248983452 9.9085820645 
9.9265568632 9.8885653109 9.486842479 9.8452407222 6.9895808771 9.1835609233 5.0648070401 7.9582736769 6.9330005326 
7.6623535955 7.9371455593 6.6000544925 9.4512634062 6.4161093846 8.7549747225 6.7434130913 4.2952633967 9.6568986828 
8.1156023842 -1.9685323601 -2.3240176183 1.3381194552 3.9427638949 -0.35927136067 1.2330527312 -3.5416064624 -3.2786757035 
-2.1995272196 -2.3144568835 -6.8949116511 -6.834117894 -3.1999675112 -3.2977364825 -3.7959222657 -0.61382790951 -4.0277394962 
0.10962952319 -2.2541173813 1.96545289 2.1902081098 -2.0721009724 3.5402276989 0.91046788491 -2.2192560322 -3.0419962698 
-3.5619899943 -4.8523344815 -3.9263235924 -6.3777860375 -3.0292834431 -4.083633195 -3.1903677339 -5.4416309214 -5.8635304893 
-4.3880184625 -0.52075462051 -0.051619847089 -0.59806993731 -3.3886791913 -6.0412505944 -6.7885269738 -3.4369391029 -5.7376940661 
-5.7085897452 -3.3830805369 -2.7705978541 -3.4888633253 -2.2079296921 -1.4374945767 -2.6792280003 -1.7276681131 -3.1882109649 
-4.6443604424 -4.5403201176 -4.7881091155 1.9001579853 3.6407001482 0.27576177163 0.49218565244 7.3242416956 7.0325263681 
5.1622731751 2.0859003161 4.6340547557 7.1119396102 2.084583472 3.0764399507 5.5678624694 2.447085802 5.4416852307 
1.2694543557 2.5538999448 3.6966381218 1.6276325471 3.8166175057 6.9532549401 5.889423916 3.9365873502 0.92093571649 
7.0479517754 4.4750784248 -0.63259048164 -1.586517983 1.24013646 4.5853669208 4.947361807 6.2325489815 2.9031003644 
3.7635067256 3.5162722254 2.717850131 0.19414612759 -0.47016772899 -0.41729910203 0.40849355426 0.6579823637 1.9623407911 
1.5791980614 1.3029617661 2.5299758345 3.9443455057 3.1542630596 6.0255809453 2.507246583 4.173637623 6.4830694817 
4.9002131822 3.9281708496 5.1074089334 5.2746896743 3.6955030197 5.4205365115 5.417363852 5.8834982484 2.3626996929 
9.8594541972 6.3418393371 -1.2015570677 -0.88930436236 1.2038736692 3.5437615557 0.95132289495 0.12455463147 -2.1164871938 
-3.8270880172 -1.3240377232 -2.2336719706 -4.8920972577 -4.514746541 -0.30569266404 -0.20099660944 -4.7774580837 0.68161645783 
-4.7292383425 0.81184059822 -0.75441984301 -0.10421036697 1.0162969419 -1.3266056019 3.395839151 2.8670768619 -1.3490232087 
-1.285104329 -2.2360327956 -4.6209732401 -3.4610425019 -5.3793452107 -2.9956812503 -4.0076177262 -3.3301211807 -4.5038161493 
-5.1064559534 -3.131749789 0.92876882361 0.51194667521 -1.0368124982 -1.5187689326 -4.8467139947 -5.4572078963 -2.1414411883 
-3.8277052777 -3.8345817765 -2.6140989098 -0.59828880259 -2.6552015713 -1.2296227626 -1.4738050426 -2.9823683615 -3.1729276917 
-0.22886627834 -3.2585019578 -3.745535237 -3.9584941035 0.63064246142 3.7652213169 2.7269691282 1.8001683277 8.3769651561 
7.2918184542 0.67778516469 -1.5834476969 5.9523606996 5.2373746307 7.6301874072 7.3969986796 0.49943519902 1.3735417059 
2.1655515293 1.8101711159 0.15913685379 3.2659620842 0.73936389641 3.6996972692 4.8903989906 4.5813236846 2.8194406244 
0.43256951002 5.2329671498 5.3764048795 3.565998792 7.0970287108 0.88375641874 3.7880751736 3.7018452923 6.2030020667 
3.1729950535 1.1171449643 2.6721754945 0.94500890006 2.8049444165 -0.81268405074 2.3803302136 3.0661570436 -0.60055015978 
0.84704493835 1.4725240016 -1.4395332102 3.4807404402 3.1359938037 2.7919844572 
