# vtk DataFile Version 5.1
vtk output
ASCII
DATASET POLYDATA
POINTS 356 float
-0.138052 -0.196267 -0.570387 0.2035 0.443622 7.8623 0.172049 7.40079 -0.326539 
0.51313 7.11908 7.70369 7.8846 0.378413 -0.390734 7.49009 0.879891 7.70867 
7.59126 7.22348 -0.085858 7.07361 6.70474 7.44465 -0.683719 -0.349617 0.641844 
-1.29355 -0.864346 1.84532 -1.54991 -0.99571 3.3349 -1.35219 -0.750862 4.7762 
-1.12007 -0.558743 6.10009 -0.590614 -0.213358 7.17921 -0.531069 0.749085 -0.628537 
-0.750713 1.84618 -1.52087 -0.895662 3.37445 -1.40444 -0.770996 4.78152 -1.0331 
-0.713908 6.01728 -0.774709 -0.101473 6.91396 -0.846086 -0.029335 7.61441 0.682298 
-0.597202 7.82299 2.05613 -0.633881 7.96295 3.46304 -0.484517 7.76113 4.78265 
-0.325184 7.72137 6.02703 0.28797 7.22244 6.90579 -0.397887 0.9281 8.17431 
-0.0897113 2.05994 8.30416 -0.349106 3.33925 8.35762 -0.37865 4.71018 8.22725 
-0.25669 5.7874 8.04484 0.438257 6.46133 7.7845 8.23557 -0.0482746 0.401363 
8.44044 -0.345637 1.77469 8.64707 -0.477085 3.30159 8.58119 -0.358499 4.80795 
8.29469 -0.11218 6.12943 7.879 0.43668 7.07946 8.02637 1.15275 -0.391445 
8.03775 2.04449 -0.872701 8.24732 3.44002 -0.814417 8.16836 4.80935 -0.546279 
8.14863 5.86955 -0.317308 7.66827 6.60944 -0.276251 7.52602 7.45214 0.878392 
7.47525 7.54296 2.03446 7.6934 7.75857 3.37554 7.60783 7.64478 4.71627 
7.49919 7.46989 5.97072 7.31019 7.12669 6.93136 7.76228 1.31088 7.72128 
7.76723 2.2096 8.0365 7.9044 3.53317 7.94501 7.87942 4.60168 7.92535 
7.79168 5.75528 7.70711 7.16302 6.27201 7.49726 0.936298 -0.159071 -1.0322 
2.12586 -0.874583 -1.19347 3.67258 -0.674232 -1.25638 5.00538 -0.676111 -1.49556 
6.168 -0.282413 -1.10404 7.1286 0.086727 -0.763901 1.07215 0.154171 8.23507 
2.22966 -0.217794 8.1446 3.70789 -0.164473 8.30848 5.16621 -0.137213 8.3994 
6.18095 0.285165 8.22794 6.8555 0.541092 7.7552 1.02535 7.50363 -0.826727 
2.02388 7.79606 -0.871853 3.62439 7.86181 -1.13714 4.83841 7.74497 -1.10353 
6.05857 7.59115 -0.888752 6.96011 7.33391 -0.52741 1.35239 6.90482 7.85326 
2.19391 7.33823 8.14504 3.61319 7.39333 8.29368 4.80178 7.27056 8.27361 
5.89924 7.1369 8.1026 6.68324 6.85772 7.7587 -1.94786 -0.32187 4.08958 
-2.1562 5.19186 1.16461 -1.82654 5.02928 6.65299 -1.15583 0.357768 6.70611 
-1.53625 0.0827038 1.15066 -1.23068 2.65415 7.80631 -0.312666 6.6567 7.48154 
-1.1689 6.97951 5.41865 -1.46509 2.52193 -0.201886 -1.43499 6.97391 2.75916 
-0.62162 6.74762 -0.0134684 -2.67636 5.09956 4.12355 -2.77615 2.57227 2.66486 
-2.51758 2.62726 5.42375 -0.364573 0.508573 7.51851 -1.74128 -0.179587 5.48042 
-1.89701 -0.174316 2.57879 -0.894202 0.0580282 -0.311814 -1.40131 3.99702 7.47345 
-1.14719 5.07347 7.47108 -1.09475 5.98559 7.09832 -1.82388 6.11999 6.03128 
-0.872249 6.86546 6.62272 -1.908 3.94332 -0.0198558 -1.60771 5.20476 -0.054861 
-2.06228 6.14743 1.9352 -1.42732 6.04643 0.696395 -1.2823 7.07041 1.24758 
-1.5646 7.16035 4.1272 -2.23721 6.14858 3.37858 -2.51976 5.11923 2.76505 
-2.10909 6.19518 4.7979 -2.33934 5.13792 5.38044 -2.4659 3.92534 2.00374 
-2.44291 2.59214 0.980151 -1.55693 0.794176 0.0627103 -2.11922 0.553227 1.84922 
-2.46611 0.278466 3.43014 -2.3394 3.9363 6.03907 -1.88572 2.55304 6.6509 
-2.21792 0.355762 4.78264 -1.93257 0.636229 6.06887 -1.21257 1.06403 7.44886 
-2.59337 2.68811 4.13981 -2.64012 3.92291 4.76274 -2.88024 3.99047 3.42788 
8.63875 0.35733 4.04452 9.03845 4.98626 1.38728 8.81752 4.9846 6.46219 
8.19252 0.762857 6.74871 8.40847 0.590636 1.19627 8.23062 2.75409 7.32061 
7.59021 6.39712 7.0998 8.26563 6.83913 5.40099 8.4953 2.70525 0.125492 
8.52207 6.87366 2.70598 7.7858 6.57276 0.508973 9.00729 5.04102 4.09148 
9.21583 2.51837 2.61904 9.09908 2.55796 5.40492 7.95712 1.04835 7.43047 
8.68405 0.487239 5.47465 8.45553 0.465389 2.59497 8.0181 0.780636 0.0920445 
8.61893 3.89918 7.17178 8.16523 4.95792 7.14595 8.30085 5.83072 6.94372 
8.32353 5.84783 5.83699 8.09476 6.66858 6.39877 9.00837 4.00031 0.388027 
8.50163 5.08544 0.400378 8.57578 5.91054 2.15363 8.645 5.93227 0.884076 
8.28965 6.75112 1.47816 8.20446 6.98446 4.12932 8.86879 6.0083 3.43782 
9.20977 4.97607 2.72394 8.80823 5.98323 4.77297 9.03622 4.90859 5.38377 
9.01618 3.78874 2.04822 9.04517 2.59105 1.25455 8.73039 1.14603 0.401639 
8.8625 1.09307 1.89521 9.08455 0.943763 3.38026 8.83814 3.81231 5.86652 
8.82704 2.68874 6.47286 8.98573 0.978929 4.69803 8.68367 1.12891 6.01454 
8.28997 1.51932 7.1538 9.00799 2.58021 4.04897 9.34886 3.8752 4.70007 
9.41595 3.86269 3.43365 3.21515 -2.2839 0.994465 3.32456 -1.65165 6.57057 
8.04773 -1.08641 4.08263 7.57115 -0.147567 6.6343 7.62349 -0.632009 0.984824 
5.75595 -0.573019 7.51753 0.924783 -0.539577 7.62311 0.60919 -1.75044 5.44561 
5.69236 -1.24198 -0.289335 0.680868 -1.84276 2.60476 0.740557 -1.05191 -0.200432 
3.31337 -2.61453 4.07119 5.64729 -2.0668 2.5758 5.71191 -1.85566 5.40953 
7.51476 0.216399 7.71121 7.84682 -0.726042 5.5382 7.90718 -0.94793 2.53735 
7.43222 -0.0476695 -0.117116 4.53724 -1.14015 7.4684 3.14049 -1.23416 7.74757 
2.00794 -1.31912 7.14399 1.95828 -1.99737 5.99159 0.891368 -1.05675 6.55719 
4.50276 -1.66563 -0.07205 3.20734 -1.43799 -0.232457 1.97373 -2.23505 1.84514 
2.05545 -1.6828 0.443826 0.568252 -1.59709 1.08582 0.589917 -1.97698 4.02084 
1.96335 -2.61807 3.29958 3.27307 -2.44114 2.63502 1.98289 -2.24858 4.67161 
3.27173 -2.3887 5.42469 4.4538 -2.40741 1.85371 5.71622 -1.72293 0.9154 
7.06442 -0.883085 0.139705 7.30275 -1.35692 1.7276 7.41707 -1.48137 3.30958 
4.54059 -2.1316 5.99783 5.74567 -1.35941 6.64133 7.47717 -1.40418 4.86852 
7.32077 -1.03947 6.21961 7.05063 -0.314008 7.32279 5.67905 -2.23864 4.01925 
4.51967 -2.3869 4.71101 4.47523 -2.54489 3.3429 3.05762 8.9071 1.18636 
3.15503 8.45291 6.59209 7.27129 8.10717 4.09332 6.93069 7.54287 6.45752 
7.15732 8.06504 1.34892 5.52338 7.86884 7.5951 1.14789 7.69558 7.53822 
0.72627 8.29299 5.44549 5.5445 8.3873 -0.130879 0.611205 8.41027 2.66229 
0.881107 8.04662 0.0647697 3.00175 9.3019 4.20569 5.59148 8.7681 2.76069 
5.53152 8.53411 5.46754 6.99233 7.23623 7.29414 7.09314 7.88929 5.43771 
7.24826 8.24436 2.67639 7.11513 7.51553 0.319635 4.31673 8.06488 7.28813 
3.04885 8.14985 7.65066 2.10654 8.00079 7.05244 1.8677 8.73042 6.1011 
0.88141 8.06552 6.59409 4.26205 8.57429 0.303212 2.97915 8.71979 -0.186801 
1.7485 9.03562 2.0272 1.90604 8.62506 0.551381 0.648822 8.43168 1.27628 
0.458962 8.62624 4.13518 1.80159 8.97314 3.44673 3.11615 9.13485 2.66445 
1.83612 8.83944 4.77085 3.16042 8.80136 5.48857 4.42924 9.17183 1.97031 
5.61145 8.55683 1.14984 6.57529 7.95279 0.472477 6.51777 8.33055 2.01592 
6.63815 8.36424 3.4965 4.34695 8.74094 6.14987 5.43431 8.12373 6.5347 
6.62473 8.29236 4.68857 6.52506 8.02654 5.96861 6.37477 7.47014 7.05034 
5.5173 8.92921 4.16313 4.34776 8.9001 4.78909 4.27017 9.02186 3.50449 
1.39327 2.90756 -2.79394 6.68741 3.04597 -2.37094 4.27194 7.58749 -1.93925 
6.54358 7.05046 -1.07947 1.24056 7.30312 -1.34878 7.44459 5.35693 -1.14345 
7.37609 1.11589 -0.935091 5.54106 0.606615 -2.01542 0.0953096 5.44904 -1.69684 
3.0303 0.583345 -2.1978 0.218322 0.678961 -1.51095 4.19445 3.0443 -2.8654 
2.74464 5.44062 -2.9783 5.59876 5.48769 -2.62779 7.40788 6.97877 -0.498253 
5.5632 7.36637 -1.62817 2.79018 7.60824 -1.76498 0.468814 7.10719 -0.868316 
7.45521 4.28782 -1.88691 7.4392 3.03223 -1.55296 7.19904 1.93354 -1.83127 
5.95194 1.87198 -2.25061 6.62751 0.820205 -1.6872 0.355765 4.20008 -2.28732 
0.237747 2.94153 -1.97278 2.22395 1.63524 -2.51684 0.776184 1.84304 -2.22334 
1.42946 0.544225 -1.99465 4.32359 0.552881 -2.23709 3.58222 1.76541 -2.86749 
2.85492 2.94928 -3.11558 4.91148 1.77207 -2.83666 5.55526 3.06609 -2.91836 
2.19346 4.12728 -2.72319 1.25442 5.45892 -2.35417 0.693204 6.62952 -1.39517 
2.05321 6.76765 -1.81072 3.46868 6.8264 -2.09771 5.94206 4.27113 -2.49031 
6.74585 5.49144 -2.02759 4.85949 6.78019 -1.93066 6.04348 6.69431 -1.65924 
7.27432 6.58105 -1.14625 4.23148 5.36707 -2.66038 4.86581 4.2253 -3.17748 
3.54565 4.18892 -3.18689 1.62717 2.97942 9.22877 6.53792 3.16645 9.07858 
4.187 6.91287 8.69879 6.2095 6.74022 8.31593 1.63042 6.77708 8.4365 
7.18428 5.24308 8.24477 7.27101 1.38196 8.14444 5.49734 1.05627 8.81135 
0.539478 5.27202 8.59224 2.99682 0.819151 9.09325 0.594237 1.01975 8.41805 
4.23754 3.15006 9.42116 2.82594 5.29379 9.43518 5.50077 5.2572 9.1276 
6.96373 6.48874 7.76508 5.41904 6.80871 8.56416 2.93122 6.89698 8.50566 
0.71059 6.85513 8.21704 7.17872 4.20253 8.76349 7.20145 3.09895 8.37522 
6.97565 2.19185 8.61293 6.02012 2.01981 8.94052 6.58961 1.22414 8.52667 
0.616751 4.18392 9.01882 0.561967 2.96741 8.72158 2.22286 1.81754 9.09721 
0.989111 2.10553 8.99608 1.62079 0.920913 8.72576 4.32662 0.748963 8.82231 
3.66358 1.94426 9.27705 2.90128 3.08527 9.52492 4.93577 2.05436 9.43448 
5.55392 3.13156 9.42721 2.17135 4.16774 9.21696 1.57063 5.3406 9.04281 
0.97702 6.22299 8.41586 2.28661 6.40318 8.73289 3.50962 6.37868 8.82082 
5.94273 4.23669 9.04111 6.47797 5.22911 8.86778 4.79788 6.35291 8.78745 
5.88183 6.20158 8.49559 6.91293 6.21689 8.1816 4.24 5.5635 9.12349 
4.85402 4.31663 9.48004 3.54845 4.24984 9.53585 
POLYGONS 709 2124
OFFSETS vtktypeint64
0 3 6 9 12 15 18 21 24 
27 30 33 36 39 42 45 48 51 
54 57 60 63 66 69 72 75 78 
81 84 87 90 93 96 99 102 105 
108 111 114 117 120 123 126 129 132 
135 138 141 144 147 150 153 156 159 
162 165 168 171 174 177 180 183 186 
189 192 195 198 201 204 207 210 213 
216 219 222 225 228 231 234 237 240 
243 246 249 252 255 258 261 264 267 
270 273 276 279 282 285 288 291 294 
297 300 303 306 309 312 315 318 321 
324 327 330 333 336 339 342 345 348 
351 354 357 360 363 366 369 372 375 
378 381 384 387 390 393 396 399 402 
405 408 411 414 417 420 423 426 429 
432 435 438 441 444 447 450 453 456 
459 462 465 468 471 474 477 480 483 
486 489 492 495 498 501 504 507 510 
513 516 519 522 525 528 531 534 537 
540 543 546 549 552 555 558 561 564 
567 570 573 576 579 582 585 588 591 
594 597 600 603 606 609 612 615 618 
621 624 627 630 633 636 639 642 645 
648 651 654 657 660 663 666 669 672 
675 678 681 684 687 690 693 696 699 
[...]
CELL_DATA 708
SCALARS scalars double
LOOKUP_TABLE default
-4.6845226428 -2.2274584059 -4.9565552807 -7.1964804284 -5.9170684011 -6.614410495 -3.6221889774 -5.5534631439 -5.2480305083 
-4.6926942959 -5.6274115437 -6.3603014135 -8.7399465557 0.91788296097 1.8111044566 1.5608391321 -1.2854668821 1.2202777872 
1.9822068281 0.6107343626 3.2189821998 4.7407541217 6.8933261789 4.6808505244 1.5239249921 6.3613796875 6.7753042204 
8.1349860923 8.2519456607 5.2405051782 2.8893892554 3.8320390813 3.1105475137 -0.4954976373 -0.24422554515 2.0173328595 
-1.9052980105 2.3275383869 1.5198692756 4.3154071746 6.2813749581 3.8094769755 3.5760616929 6.6309433798 7.21900293 
6.8441415993 8.0383637852 6.8977438874 5.0014474543 4.8705613181 5.0798197371 1.755094778 6.8212086769 4.9942169057 
7.5252189245 7.0471239333 6.5809686392 6.8780182745 8.0597187292 2.5658908609 3.2038272419 3.2559628934 6.8122386235 
3.2879095242 2.1920603238 3.2721749271 4.256710383 6.2071417306 6.2491772563 5.2161645323 0.59894714303 -1.5862053677 
1.2981044441 1.8309545438 -6.1400072976 -2.1316952187 -6.752366902 -2.0944009017 -0.84021561708 -4.8913696407 -5.857987843 
-5.1720620524 -5.1240077144 -2.3292996301 -0.56175775582 -2.8092634308 0.8718260742 -0.91413083295 0.11469511272 -0.31762171103 
-1.9637627055 -6.1510465985 -4.3234353896 -4.0682173674 -1.9795542147 -3.3098082314 -5.8689330086 -7.8690559126 -7.3299606163 
-1.2163380641 -1.1476031999 -1.275778526 -5.1962698423 -1.4487657256 -0.90279081542 -1.0617721345 0.24804020246 2.0877230916 
1.0858211116 1.2410204442 0.81482870086 2.446014149 0.941974772 1.3731287488 0.67531763018 -1.4342990038 -0.65815676943 
-1.2263015838 -3.4444155139 -4.622678636 -2.584814718 -3.1350582519 -2.9883847999 -0.31102679136 -2.6657656169 -2.2439260258 
1.0732292323 -2.2450243126 -0.65944534867 -1.9608501177 1.1285826416 -2.2133817781 3.0852648742 3.5891394409 -0.53224003131 
-1.7812058346 1.4422304384 0.29616804293 5.1037439149 5.4231032296 1.4049026517 2.5330803104 2.2060377539 6.5756189413 
6.7318435507 4.0032517602 4.0051062654 6.9741339181 0.47819866715 6.3683323904 -0.0071604037288 -1.2541284635 0.55637641161 
3.8984281529 -2.5625183638 1.5962991644 3.9065272158 4.0893991186 1.6826758901 6.0996241302 3.624157348 7.5066207417 
4.274119782 2.842906646 7.2580292751 7.6602654674 6.9476658612 1.1730582913 0.63328416426 0.93957136444 1.6539541476 
5.4571307521 6.5115508508 7.0160115995 1.8630041574 6.2728080952 6.1541713778 5.1353151291 2.2738634062 4.4561557528 
2.3897403437 2.0717298648 5.6014669509 4.1074571958 1.7320772781 5.2528503079 4.7801097597 5.3836744361 -0.22786589756 
-2.5069974911 1.0216549862 0.25188239594 -3.4596805354 -1.7888465966 -3.8062050632 -1.5933652019 -6.6253735591 -2.9179184967 
-2.9387748088 -6.6576006365 -5.9435324268 -1.7516932463 0.59116210362 -1.5945422494 -0.68931650394 1.1559125245 -1.9495485455 
0.76712784569 -1.7559930585 -2.6912373724 -2.2621262272 -2.0206747425 -0.3033796204 -3.4729422743 -3.277660021 -3.8173464655 
-1.5370415191 -0.38734185962 -1.6448450269 -1.94590094 -5.4654868691 -0.41276802507 -0.12697962875 0.16272347169 0.42053304541 
-0.86429406833 2.8487539044 0.11369208313 0.25783565212 2.5968082305 -0.88626236603 0.011631343563 3.0356741505 -2.3375487923 
-2.2136653709 -2.7927730271 -6.3531738938 0.33935030006 -6.9889393951 -7.2437600717 -7.0445612952 -6.4205819081 -6.7928461059 
-7.6813103358 -7.5572157162 -6.7855061932 -8.0932015293 -4.4504071147 -7.7606438148 -7.4442453155 -2.3875343394 -9.2747838289 
-5.3612411046 -6.9404495932 -7.4470169317 -4.2726393876 -6.6846818464 -8.618698748 -8.1677349376 -7.4657497285 -7.702902688 
-7.6648002637 -8.5220590833 -4.4965576498 -8.5230159943 -6.3691600011 -9.4260281137 -6.5066214563 -5.9262125035 -5.2210478674 
-6.9869526239 -7.0097869369 -8.2123493731 -8.3611349439 -7.981587383 -7.8630735681 -8.8584475476 -9.2704315062 -8.8560392259 
-9.0505488095 -9.0761805407 -7.1879057713 -6.166176046 -7.4034750861 -6.8395140393 -9.0702400167 -8.7438248349 -8.1369023223 
-8.9323669095 -8.1644241273 -5.6161432631 -8.610730403 -8.4038949305 -8.8292870254 -9.1637332276 -8.6153669027 -9.9062225434 
-9.8996755209 -9.6703018437 -9.530153128 -9.6817229762 -8.4057404549 -9.6135183857 -9.5478102544 -9.5351043616 -8.762318767 
-9.2084377505 -9.2361156663 -8.9676087892 -9.1409897759 -9.0859049356 -6.205415262 -7.8632857613 -9.3188491367 -4.7218676964 
-7.3944171677 -7.6949403341 -7.5171685392 -6.2262489746 -9.3408257397 -8.7145745595 -8.7615526261 -8.2753111918 -8.6402961859 
-7.1051332792 -8.0738781847 -9.0550559149 -6.7834206406 -4.7584829082 -6.4602534705 -6.8686284541 -7.1063248645 -4.3516903483 
0.064099419656 -4.7599726113 -7.2350716181 -8.9412046019 -7.5860209297 -8.5968102909 -9.1839067114 -9.2710150238 -9.1191549706 
-9.3339348619 -8.3708461125 -9.8125047549 -9.7516173823 -9.4156727802 -9.9272554899 -9.9497946177 -9.9529551273 -9.8571272886 
-9.4417131893 -9.3039266949 -9.7627573229 8.2477804474 2.8161206652 8.3055439299 7.8456503966 7.9721661585 6.7294299828 
8.2077833301 8.2610572126 4.7328313847 7.429810094 5.1719624688 7.7966646167 9.0581018203 9.0031244716 7.5895558203 
9.4724056785 7.2504025816 6.2429069481 7.6895003002 5.9665530591 7.9697772977 7.8357694903 9.1724489263 8.563551288 
7.5406469337 9.0278183065 5.7963396449 7.4689335443 6.2063620351 2.3791327526 9.2577680745 8.5470962608 7.5533935715 
3.5191765545 7.4118067428 7.352327889 9.7591369688 8.505674967 8.7428916428 8.0002316561 9.5779267242 8.7638050803 
8.7837499083 9.0884423149 9.1380206945 7.35110689 7.5364927187 7.8154228752 7.3573906478 8.9901169436 8.3240517304 
9.7744819424 7.7615856242 6.8262776578 8.0543703283 7.9707178251 8.9433339374 8.8779626071 8.8567772282 7.8460094788 
9.883399174 9.742299349 9.9443035317 9.1331373099 9.090651793 9.4958016802 9.9650299472 9.4070494222 9.1672685415 
9.2945160993 9.7457239861 9.4091390487 9.8591734033 9.1164305252 9.0842499106 8.4271312493 6.8958869113 9.1865182188 
7.8414196771 6.5423355174 8.6577780833 9.8841048165 9.6021404243 9.3114385507 8.8033174174 8.8745968843 8.5984930917 
8.5958832499 9.6927962153 8.1939569208 9.0931512002 8.3170205415 7.9264007123 8.8372880339 6.3976247032 9.3765936489 
7.9562804938 2.9572285796 7.6341274807 8.497402382 8.9027716453 8.2492808513 9.434373509 8.8495110481 9.0883135606 
8.7710274456 9.6569598434 9.4708061011 9.2927006194 9.9313074053 9.6026739477 9.8183587365 9.8343177144 9.9469973662 
9.6399530128 9.8586150599 9.4938827533 9.953695178 6.769523844 6.1051432482 4.9003146251 8.9970104749 4.8721174088 
9.6335510072 6.2174460237 6.0785876915 9.5792547466 6.7440358888 8.5607300147 6.0132957285 7.6970482179 6.7139461315 
5.2092282674 -1.8648075346 -1.8877889798 1.6346710146 3.8698039782 -0.74093129954 1.4853194664 -2.9154821678 -4.3831274707 
-2.7429640142 -2.8058713297 -5.4632112022 -5.5725509874 -2.5855434202 -2.7944558642 -3.8414952049 0.10427993108 -4.5771743972 
0.023617905147 -1.1803147537 1.7976626168 4.4811879737 -1.4699568758 1.8967732547 2.455721086 -1.6732492714 -3.5037676434 
-3.6377722681 -3.4284485052 -2.7942377078 -5.8463777364 -6.6848551289 -3.3995179865 -6.4664313257 -5.9619341332 -5.2429697328 
-3.3471441987 -0.98789284304 0.0235098818 0.2666012521 -5.5025306206 -4.3308363628 -4.8636224309 -4.1536184024 -6.113356554 
-5.6919722839 -3.2806053476 -0.88857661842 -3.2123850564 -3.1030463873 -0.44049998067 -3.4035845958 -2.9565333188 -0.094872625541 
-5.0155473785 -4.7911227997 -4.5008070745 1.9889518909 2.9385925644 -0.16953692318 1.0941196712 2.6329687455 5.6961788657 
5.9372254134 6.6126804692 5.4071785194 6.3397362353 2.2938354239 3.1099155033 5.2446028321 4.2775768787 5.1544775767 
1.328248981 0.3065301439 3.8087549337 1.0843061158 5.5867767187 6.3401715412 5.9655667319 2.1034465461 0.99429335948 
6.5460087294 6.3651411611 2.6269221382 3.5905170502 1.0820406562 4.7613433233 4.6524238613 0.77847589657 4.6573674031 
4.4473086541 4.1199488177 0.55919630795 1.7600524777 -2.3722749187 1.2773527511 -0.48509978903 -1.6281678807 1.9721426486 
1.2830503758 -2.629528754 2.9214739531 4.0603031772 4.1033592788 5.8821838138 5.0567835201 3.1894046248 6.9392131399 
4.6432183358 6.9918436604 6.7688122362 4.6522483457 5.1338428044 5.2438204643 7.430908613 4.2864418335 1.5358886276 
9.0155252241 7.8629910642 -2.2485278576 -2.5085981521 1.9531379322 3.421946378 0.052048308434 0.29711349801 -2.682593062 
-2.7877599609 -2.7613424749 -2.213741464 -4.0196568049 -4.6969146944 -5.2796069693 -5.5497986675 -2.6607009853 -0.012134679361 
-2.4258535742 0.65588970233 -3.8179690312 1.9872131483 3.3392918117 -1.9757003385 2.8517513099 0.62851539257 -1.9571168248 
-1.724201199 -2.1051396456 -3.6120511001 -2.9340778465 -6.4894571703 -3.5284595064 -6.4306738523 -4.2431368686 -4.9044887384 
-5.4392713227 -2.4908794377 0.73858894504 0.0052306682373 -1.2098786448 -0.47643500888 -3.4941240407 -3.8558121284 -0.93263307241 
-5.5489054239 -4.6569274094 -2.129731824 -1.57595372 -2.718988911 -3.2406303637 0.093157758004 -2.5863453914 -2.2254326827 
-0.62649441804 -4.7060469249 -2.612846658 -3.9263384817 0.6729249621 3.1022358263 -0.11295097771 0.82700244253 6.6998437054 
6.8138751964 5.1632026281 -1.3520967306 5.2224656165 4.6745421194 4.7440428315 2.7418554492 4.2539078571 3.4017842402 
4.3173317693 1.5637743448 0.29721144974 3.4878298776 0.51356822129 4.485912895 4.8822730715 3.8598508344 0.98885483935 
2.0487929827 5.4720051239 1.4180168526 2.3287960302 3.6752119393 2.2636405029 4.7150728825 4.7585542299 1.8729941278 
3.4199489544 4.3408606923 3.7255834071 0.8554641721 2.1023256339 -0.4763531578 1.8348199704 -0.59667514081 -0.53740969234 
1.1677400283 1.191577229 -0.74804809014 2.1162498747 3.0657537902 2.8677967401 
