# vtk DataFile Version 5.1
vtk output
ASCII
DATASET POLYDATA
POINTS 356 float
-0.274771 -0.2087 -0.599148 -0.0850279 -0.0268413 7.5797 0.0221011 7.06777 -0.460601 
0.316502 6.68174 7.43002 7.50739 0.321997 -0.49656 7.23146 0.687126 7.35957 
7.0613 6.78017 -0.0584703 6.67033 6.30873 7.01227 -0.890358 -0.613246 0.273059 
-1.45658 -0.987728 1.70508 -1.65792 -1.05986 3.12679 -1.64813 -0.961504 4.50133 
-1.32283 -0.659096 5.82676 -0.651181 -0.307264 6.69803 -0.838105 0.517136 -0.951945 
-0.778809 1.52613 -1.57597 -0.945771 3.12256 -1.44619 -1.07183 4.52296 -1.21718 
-0.834533 5.77651 -0.817214 -0.259933 6.65376 -0.951549 -0.330681 7.34993 0.524603 
-0.624355 7.38042 1.87129 -0.740812 7.64094 3.28621 -0.716739 7.57916 4.54489 
-0.294596 7.21681 5.71077 0.0261435 7.07426 6.83252 -0.391787 0.763878 7.49836 
-0.46307 1.79497 8.19613 -0.504026 3.14319 7.94416 -0.626218 4.44985 7.97071 
-0.442647 5.46084 7.71647 0.117355 6.25225 7.86522 7.97679 -0.146077 0.240727 
8.14977 -0.415156 1.53557 8.17859 -0.449183 3.09713 8.04652 -0.36431 4.50064 
7.82143 -0.0784958 5.76008 7.64716 0.256704 6.87038 7.88327 0.850826 -0.594843 
7.51338 1.87344 -1.02982 7.81158 3.24355 -0.936125 7.87283 4.41906 -0.646885 
7.73351 5.61604 -0.376636 7.39071 6.37585 -0.409363 7.20091 7.0534 0.691634 
7.18274 7.22792 1.91156 7.20374 7.29031 3.2582 7.01482 7.21515 4.41275 
7.07519 6.92264 5.6266 6.83664 6.71904 6.49239 7.54742 1.08871 7.38684 
7.2145 2.10262 7.52944 7.5025 3.17256 7.53408 7.34314 4.32184 7.48655 
7.21633 5.25921 7.24562 6.82863 5.92347 7.15023 0.668336 -0.562542 -1.26075 
1.94311 -0.867937 -1.20667 3.41708 -0.93579 -1.56343 4.83055 -0.770845 -1.60184 
5.82914 -0.212018 -1.27839 7.00627 -0.139339 -0.906285 0.906003 0.0147778 7.87477 
2.04909 -0.482716 7.93773 3.49162 -0.521956 8.25696 4.83692 -0.112228 7.97434 
5.82981 0.133453 7.90617 6.72584 0.255253 7.69669 0.658624 7.31263 -1.08277 
1.72591 7.74248 -1.14367 3.31558 7.86976 -1.44179 4.68179 7.55265 -1.21857 
5.7222 7.26147 -0.974525 6.55808 7.05985 -0.625642 1.06967 6.71365 7.69662 
2.09333 6.90129 7.71682 3.43563 6.97019 7.91534 4.61797 6.79435 7.97174 
5.59267 6.75688 7.80413 6.28441 6.4808 7.36267 -2.01787 -0.405437 3.77107 
-2.41241 4.89218 0.911634 -1.96037 4.87993 6.41166 -1.29276 0.100613 6.24128 
-1.61059 -0.191627 0.902101 -1.34933 2.4362 7.30914 -0.228107 6.14889 7.09353 
-1.50584 6.76535 5.19865 -1.74623 2.35416 -0.462159 -1.68937 6.83481 2.49896 
-0.682772 6.41048 -0.0362833 -2.90427 4.78568 3.86404 -2.96103 2.3737 2.42864 
-2.66623 2.32429 5.21352 -0.765329 0.140382 7.382 -1.84498 -0.338395 5.10761 
-1.9251 -0.347274 2.44378 -1.15555 -0.125037 -0.508219 -1.56406 3.78746 7.15745 
-1.10947 4.81228 7.12642 -1.29014 5.74685 6.8181 -1.73996 5.69861 5.65301 
-1.03057 6.60306 6.3237 -2.00479 3.71355 -0.159581 -1.61934 4.90601 -0.177504 
-2.00175 5.66899 1.81285 -1.68834 5.84012 0.43692 -1.48517 6.73881 1.13838 
-1.60201 6.65938 3.83063 -2.46486 5.86405 3.24024 -2.82714 4.85188 2.55169 
-2.30396 5.89692 4.59139 -2.5039 4.83143 5.1426 -2.76535 3.74759 1.82018 
-2.38271 2.35947 0.783168 -1.62247 0.621171 0.054137 -2.2556 0.228754 1.63213 
-2.60257 0.103718 3.11663 -2.37965 3.59288 5.71929 -1.91555 2.30139 6.32434 
-2.30025 0.175385 4.52836 -2.0782 0.3611 5.80358 -1.29886 0.75808 7.04742 
-2.89215 2.29663 3.83765 -2.93346 3.63187 4.49648 -2.99777 3.68474 3.16343 
8.65626 0.224918 3.79709 8.58958 4.78038 1.20714 8.14858 4.58425 6.10684 
8.16572 0.589406 6.44656 8.1039 0.487616 0.919255 8.02841 2.55613 7.07203 
7.32764 6.06837 6.91393 7.9203 6.5423 5.08593 8.36134 2.39137 -0.214047 
7.89459 6.59522 2.56145 7.66771 6.37776 0.212814 8.87381 4.64325 3.87301 
8.64876 2.37701 2.34907 8.70342 2.42758 5.07311 7.64947 0.833631 7.12385 
8.29447 0.321726 5.16438 8.12647 0.23667 2.38975 7.54031 0.702567 0.0223049 
8.14922 3.68365 6.6392 8.01243 4.75005 6.97163 7.86132 5.50292 6.46302 
8.25765 5.63878 5.612 7.50981 6.26447 6.12371 8.50349 3.76977 0.284644 
8.41112 4.94532 0.0717916 8.57675 5.83385 1.9546 8.23708 5.68757 0.762806 
7.83375 6.47433 1.30125 8.09144 6.59538 3.95718 8.56493 5.73489 3.20822 
8.63074 4.74997 2.44671 8.29735 5.59496 4.43057 8.72456 4.68561 5.09143 
8.96194 3.58762 1.84 8.53388 2.49212 1.09063 8.25451 1.11007 0.228789 
8.55362 0.874309 1.73269 8.59095 0.834414 3.01589 8.62613 3.58884 5.61661 
8.26688 2.49782 6.12645 8.4201 0.91792 4.48049 8.19328 1.10186 5.65538 
7.90401 1.31258 6.81055 8.87841 2.26696 3.79126 8.65669 3.52658 4.39791 
8.9093 3.65559 3.13901 2.93225 -2.30866 0.747584 3.04761 -1.99379 6.34551 
7.8365 -1.28754 3.8036 7.26068 -0.298848 6.37404 7.47805 -0.763513 0.803604 
5.64365 -0.819719 7.50379 0.777249 -0.791231 7.2993 0.521247 -1.81205 5.10842 
5.6243 -1.33806 -0.583535 0.430952 -2.02276 2.36197 0.537809 -1.20855 -0.439194 
3.09299 -2.73406 3.8208 5.42706 -2.21401 2.33696 5.57787 -2.05835 5.1763 
6.9789 0.230938 7.09066 7.73029 -1.00351 5.3186 7.57832 -0.988696 2.36274 
7.22809 -0.169658 -0.234238 4.38061 -1.29327 7.32692 2.95907 -1.13832 7.21219 
1.90257 -1.32709 6.7973 1.82726 -2.12461 5.75819 0.625324 -1.40632 6.24469 
4.30349 -1.7982 -0.165813 2.9633 -1.7778 -0.599022 1.71226 -2.45462 1.71086 
1.76926 -2.07112 0.159267 0.419082 -1.7064 0.960712 0.343244 -2.25067 3.84785 
1.80491 -2.6156 3.13025 3.08874 -2.73317 2.42392 1.79005 -2.48904 4.50785 
3.14056 -2.38954 5.05562 4.27905 -2.5965 1.5817 5.50711 -1.77756 0.725815 
6.92082 -0.954848 -0.0278893 7.11182 -1.46831 1.55235 7.05366 -1.52226 3.08498 
4.24088 -2.09959 5.68573 5.39204 -1.34853 6.32893 6.99544 -1.19317 4.50385 
7.0296 -1.09777 5.83734 6.78659 -0.574289 7.05132 5.4549 -2.34042 3.85045 
4.24806 -2.54003 4.37413 4.18801 -2.605 3.09654 2.77143 8.64267 0.96662 
2.89999 8.00323 6.31435 6.98529 7.93619 3.89677 6.74901 7.40623 6.2124 
6.96069 7.70854 1.18953 5.14656 7.35021 7.23291 1.01666 7.16885 7.1082 
0.493226 8.11317 5.25372 5.25339 8.12198 -0.149876 0.366385 8.17432 2.47946 
0.692654 7.52273 0.0289617 2.89639 8.71553 3.92036 5.24043 8.51486 2.48485 
5.25768 8.29594 5.22815 6.60782 6.84772 7.0695 6.77832 7.52513 5.2766 
6.97398 7.87022 2.51309 6.82515 7.14139 0.0886443 4.08633 7.75866 6.96422 
2.85663 7.71823 7.2901 1.8991 7.78274 6.87614 1.78663 8.21478 5.78154 
0.809848 7.52951 6.22231 3.97102 8.28112 0.156861 2.80543 7.94426 -0.126772 
1.64461 8.45733 1.88599 1.67297 8.27621 0.396298 0.422623 8.09493 1.12037 
0.460253 8.09798 3.89518 1.55052 8.76237 3.27353 2.85884 8.79795 2.48999 
1.6122 8.39188 4.55884 2.95766 8.61792 5.29336 4.08191 8.51093 1.7769 
5.26085 8.2462 1.04919 6.33313 7.62178 0.401089 6.23732 7.98724 1.87413 
6.34579 8.0852 3.21651 4.15102 8.28296 5.79979 5.21801 7.78886 6.35538 
6.28772 7.84412 4.44092 6.06763 7.67454 5.67329 6.03357 6.97701 6.67165 
5.2784 8.40758 3.94283 4.01866 8.45346 4.52256 4.15804 8.80694 3.26184 
1.1028 2.64988 -2.86616 6.26699 2.84048 -2.39629 4.21207 7.27839 -1.83629 
6.40691 6.98836 -1.38987 1.16548 6.91772 -1.51008 7.37685 5.12227 -1.39556 
7.15896 0.966407 -1.21175 5.26341 0.505532 -2.20544 -0.141388 5.25409 -1.90022 
2.67292 0.339994 -2.36447 0.0674287 0.377115 -1.63244 4.05935 2.81666 -3.20114 
2.58198 5.18941 -2.85719 5.36627 5.17797 -2.52802 7.11236 6.74639 -0.589286 
5.24611 7.16612 -1.86967 2.65609 6.98999 -1.51974 0.295362 6.77766 -0.994333 
6.98971 3.97412 -1.78347 7.24807 2.7516 -1.80653 6.66337 1.81881 -1.95648 
5.77471 1.63271 -2.48663 6.32545 0.631302 -1.76126 0.189914 3.92556 -2.37548 
-0.123904 2.59214 -2.29562 2.02716 1.40028 -2.84004 0.729877 1.56066 -2.33347 
1.30057 0.353557 -2.07816 4.06775 0.341542 -2.36313 3.43407 1.49142 -2.96444 
2.65976 2.79878 -3.14251 4.71549 1.6023 -2.71684 5.26714 2.89658 -2.88808 
1.97319 3.89183 -3.13444 1.15313 5.12133 -2.40448 0.425467 6.41357 -1.67694 
1.88585 6.66143 -2.24886 3.30384 6.77966 -2.34952 5.69403 3.91797 -2.62598 
6.41895 5.20278 -1.99473 4.62401 6.59987 -2.17431 5.82218 6.40072 -1.70652 
6.87223 6.27068 -1.12611 4.06142 5.19155 -2.83031 4.58547 4.01476 -3.05495 
3.34391 4.02727 -3.23085 1.29285 2.79526 9.05158 6.203 2.98299 8.48032 
3.93528 6.52237 8.26786 5.94854 6.16887 7.72101 1.44167 6.5143 8.14103 
7.02118 4.99127 8.13412 6.94658 1.19795 7.85294 5.28556 0.873496 8.65932 
0.3882 4.95777 8.20251 2.77694 0.667779 8.52828 0.388796 0.781234 8.16593 
3.9766 2.9033 9.31486 2.64062 5.12137 8.8342 5.0608 4.9123 8.65879 
6.76618 6.24231 7.47542 5.13129 6.30084 7.98828 2.70071 6.58594 8.33099 
0.700406 6.30741 7.70195 6.77321 3.97346 8.39232 7.03362 2.87164 8.18394 
6.6509 2.01566 8.35737 5.75717 1.88327 8.79124 6.24156 1.02031 8.0247 
0.448238 3.88702 8.45778 0.320733 2.6342 8.65213 2.07321 1.66455 9.0147 
0.905322 1.76773 8.47382 1.45989 0.683291 8.53672 4.11696 0.612176 8.81309 
3.34633 1.71589 9.14509 2.60662 2.91658 9.04425 4.60281 1.84199 8.86335 
5.22411 2.95398 9.23073 2.02911 4.01683 9.12619 1.37522 5.01231 8.81598 
0.898474 5.94847 8.12887 2.08574 5.9543 8.33179 3.40223 6.02826 8.47014 
5.71174 4.05899 8.88188 6.06095 4.92907 8.14143 4.5517 6.1125 8.44813 
5.61734 6.0194 8.40266 6.45812 5.83388 7.74521 4.00351 5.07638 9.02966 
4.52222 3.9877 8.92184 3.31795 4.02528 9.27465 
POLYGONS 709 2124
OFFSETS vtktypeint64
0 3 6 9 12 15 18 21 24 
27 30 33 36 39 42 45 48 51 
54 57 60 63 66 69 72 75 78 
81 84 87 90 93 96 99 102 105 
108 111 114 117 120 123 126 129 132 
135 138 141 144 147 150 153 156 159 
162 165 168 171 174 177 180 183 186 
189 192 195 198 201 204 207 210 213 
216 219 222 225 228 231 234 237 240 
243 246 249 252 255 258 261 264 267 
270 273 276 279 282 285 288 291 294 
297 300 303 306 309 312 315 318 321 
324 327 330 333 336 339 342 345 348 
351 354 357 360 363 366 369 372 375 
378 381 384 387 390 393 396 399 402 
405 408 411 414 417 420 423 426 429 
432 435 438 441 444 447 450 453 456 
459 462 465 468 471 474 477 480 483 
486 489 492 495 498 501 504 507 510 
513 516 519 522 525 528 531 534 537 
540 543 546 549 552 555 558 561 564 
567 570 573 576 579 582 585 588 591 
594 597 600 603 606 609 612 615 618 
621 624 627 630 633 636 639 642 645 
[...]
CELL_DATA 708
SCALARS scalars double
LOOKUP_TABLE default
-5.6668320512 -8.1237913108 -5.6176520473 -5.509232952 -4.9774782506 -5.1355090519 -3.3127588711 -5.9546797499 -4.6780938684 
-5.247868539 -5.668421538 -5.1381916206 -8.6015588524 -5.3763433114 2.8957289123 3.4658307182 1.1896672295 -0.050359001663 
2.8282595173 -0.74079217873 4.9384976074 5.4624374073 3.5771862293 4.3470145 6.0750412033 8.4104162798 8.3537506246 
3.6436025077 3.6196084527 5.1535875184 1.3002633308 6.7847055696 0.93432244638 -0.27656338028 -2.1933958628 2.452595224 
-0.06028341297 0.36795162435 2.5513991711 5.6573536697 3.4375632237 5.7481782119 3.4053228315 8.2136381876 5.6373324477 
5.2637181092 8.4533332622 8.4654976996 6.7891283915 3.0955807027 3.0204862974 3.180739667 6.746086295 5.038798292 
6.9476920219 7.8293806904 4.2127379932 6.9532138044 6.7343095137 6.1422171674 3.588025366 5.0809215651 3.8036146874 
3.1229627501 5.1231732533 3.9794755085 4.2316830283 6.7693549352 6.7995888079 7.1073626578 0.031461815556 -0.67986258787 
-0.12428792889 0.10725599316 -3.0488165451 -5.1666068546 -5.0921692677 -2.2187571178 -0.32703413024 -5.5041572947 -6.1640478242 
-6.9844227902 -4.5662606719 -1.8462275342 -1.9517296222 -2.159942678 0.19431676951 -0.35755624643 -0.79867425326 -0.76004452095 
-2.2584460738 -4.884681767 -3.854031062 -4.9742582306 -1.2454157862 -5.5992537102 -6.6396821539 -0.1046876354 0.99444924794 
-1.047229908 -0.80197087792 -0.76896735639 -6.2186593383 -2.1577038968 -1.4387311443 -1.9695772564 0.40727164341 0.89266267687 
1.8162092129 1.0156347281 0.66097345576 1.1754022333 1.0589362243 0.56007301134 0.52755903201 -0.53637287289 -1.108608357 
-0.53558876901 -1.2269592395 -3.3793301472 -2.1590451533 -5.446265388 -2.3155166502 -6.4822197984 -6.664022992 -3.0583803035 
0.58167892027 -2.2050927063 -0.46535636741 -0.79369013735 3.6560505723 1.836131582 0.8310844425 -1.4513334458 -1.5076114262 
1.641491454 2.7885838909 1.3222347977 1.1122916649 5.0909430687 5.2493692279 5.2871569035 4.2452473489 6.98770167 
6.8313977308 6.79785454 6.9412329163 3.1926236907 2.6098980481 1.685778631 5.3784634111 -1.1083425154 -2.7158992189 
0.50831232874 1.0215293689 0.83174240564 -0.40994932292 2.1865541365 7.0756095844 5.4073178178 5.8550903952 7.2625561004 
6.3923954834 6.9072077639 6.91115373 6.9599271903 3.7733913067 3.1636135321 5.2524454819 2.3514713623 7.3954431165 
3.6689265691 8.3753405411 8.4886300573 6.4025793785 7.4719070417 8.3065511621 0.3508711722 1.8235289343 0.56005395087 
3.5893057685 4.7661202868 1.4584679211 4.3359828081 3.9655647539 2.6971608449 5.545960456 3.0207748805 1.5813674241 
-0.56318341519 -2.9329416541 -1.6470602702 1.3300631262 -5.0801787503 -2.1566677521 -0.50640628546 -8.7421846795 -3.252778075 
-3.0827544038 -5.8541631288 -4.7397639094 -0.24814087997 -1.2383531753 -0.6947194259 2.330606066 -1.2023347453 -0.09782305959 
-0.95896312358 -2.634896683 -2.8006096194 -3.0973308036 0.089357841727 -2.233253574 -1.9090290355 2.4664201733 -4.8091002543 
-1.470515116 -1.4836267158 -1.7824663421 -1.3954267378 2.3147204824 -2.4273819892 -1.0779058732 -2.6053654632 0.56059764385 
1.6258145688 -1.3240194353 -0.75629850481 -2.2980630804 1.503770772 2.8589979092 2.6165862542 -1.0279175583 -0.98784496903 
1.1571018669 0.73854104271 -6.7967254472 -5.9596023259 -3.9670233553 -1.9715323735 -5.9694241945 -2.9682295782 -7.1501664155 
-7.2302019778 -7.2585515496 -6.7175633386 -7.3214800392 -3.9788999916 -5.8240469817 -6.0438361516 -5.8112893551 -7.1212133615 
-8.2202612585 -4.1057431428 -4.9917208483 -8.1790928814 -5.4845198528 -7.6844400171 -8.4027030623 -8.6112622516 -7.6737198306 
-8.5114338413 -7.0364108905 -7.1457335876 -7.3728083835 -5.2930069221 -7.1164860308 -7.921056728 -7.9434864521 -5.4368492728 
-5.1670552997 -5.2514303761 -9.2616537839 -8.2734523525 -8.2445631501 -7.8147074442 -9.6738684968 -8.9384827923 -8.4046634602 
-8.9418915148 -8.8708688639 -8.0280490124 -5.7789423689 -5.4483950452 -7.9718390357 -8.8694272673 -7.2542604715 -9.3027545503 
-7.1232249375 -6.8941854425 -7.6416042566 -8.3449429728 -8.5718822826 -9.3098435166 -8.7256155557 -8.4721352145 -9.6844165736 
-9.9581517411 -9.8396916084 -8.965664149 -9.621100044 -9.5609932787 -9.5880862523 -9.8634574689 -8.8492691175 -9.3577317479 
-9.757461047 -9.0814524982 -9.2834787207 -8.7507643066 -8.6774313854 -7.2176577573 -7.3647348883 -9.1723342687 -4.1517831756 
-7.0189586769 -6.3956843434 -6.9941126595 -6.7102279814 -9.2455189961 -8.8813892342 -8.8204979946 -8.9174928326 -8.1177298044 
-8.948805932 -8.5536458315 -8.4268319906 -7.3576426939 -5.2030537666 -9.8137368703 -4.2150827906 -1.212107669 -4.7682473638 
-5.9839451771 -2.3226184337 -8.873636547 -7.9575467921 -8.6650692707 -9.7018005957 -8.2019582037 -9.027080977 -8.2474631755 
-9.3713181615 -9.5129741755 -9.6300239991 -9.4572778369 -9.5121515468 -9.9320110236 -9.6902545151 -9.9336441391 -9.8844408092 
-9.6397692727 -9.5459631456 -9.8269216169 3.9222143455 0.70556323507 6.0539334876 4.735207759 5.2342234224 1.6116991323 
2.4366076035 6.9604931426 3.3441896567 7.4576869093 3.7007046538 7.6776062609 6.0756597211 6.084854328 7.667042129 
9.5847847564 7.0316401623 7.3974618556 7.486154648 5.6366637163 7.4052793932 9.3020503432 7.9169546346 7.7480017024 
8.3066528655 6.8842679203 9.0800882636 7.5268387512 8.9059611894 7.7473044306 9.5907665495 6.3806512436 6.3236959505 
7.5559843814 7.4059896261 7.140331655 8.3598958506 8.8314813115 9.0201410979 9.5913771905 9.5879969324 9.6720745082 
7.6659222922 9.6980415274 8.2034972362 7.7983710316 8.6540044875 8.7218629901 7.6088614279 7.9930026411 8.0758542655 
8.4272321059 9.3856576856 9.9086895403 9.1229426912 9.1495481453 7.1015646624 9.243600379 9.1869260429 9.2417105417 
9.6956294662 9.9832916816 9.6189035327 9.7644810643 9.7523868333 8.5588201229 9.5116986567 9.5462249024 9.6962340275 
8.7067368175 8.8279829097 9.7002557847 9.8981067675 9.7751252212 9.8056539427 8.4807483122 6.165695176 9.0338318669 
7.7070576526 6.5919086175 6.4716012779 9.6873732441 9.6127168188 9.0992665363 8.8406014004 8.9426926314 9.1198963668 
8.9085902673 8.6545404528 8.8968079412 8.2784783493 7.5479507785 7.6577494418 9.3679363733 7.5670990302 9.5359344174 
8.1520047657 -0.0069673251375 7.3419677399 7.2150378967 8.2226008917 7.0114774534 9.8072657033 8.8718488702 9.4328542687 
8.9420408716 9.9048721303 8.5600021616 9.787338746 9.6816585819 9.7256231085 9.9741249867 9.8000571769 9.7342377109 
9.5795957809 9.5147672962 9.9322706848 9.4483602445 4.7510085743 8.7019018507 4.7266953963 9.104264007 6.0686024418 
7.8494470601 9.4617150371 5.109269584 2.3222623502 6.0170937824 5.345458772 4.6866212557 8.0449812068 3.9046698158 
3.119678856 1.2572227968 1.7580470967 1.9576471721 -0.68898273299 -1.5637842541 1.1719197441 -1.5353447605 -2.9391169006 
-3.8685275153 -2.8300350378 -6.1503820907 -5.9461985908 -2.7097941757 -2.8853651756 -0.95251206362 -1.7395322475 -1.5330649931 
-3.4016634142 -4.9630851462 3.3191724336 4.3671576832 0.45363796781 1.1066027931 0.63370139752 1.1573066968 -2.9862569894 
-4.9271345515 -3.4041144468 -3.5906328498 -6.0575200365 -5.1091486814 -6.630067227 -5.9503443581 -6.1620525021 -6.2882224415 
-2.7196043835 -2.9240934398 -3.1633060171 -0.19795936697 -3.9958454698 -4.694499378 -5.0296201597 -4.3457740662 -5.3116596691 
-5.4507636085 -1.3891033068 -1.5768620527 -1.781778846 -3.251725314 -2.341485461 -1.0988146433 -2.1693411311 -2.6500899497 
-3.4583218709 -4.6280264437 -3.6138611082 0.74526577368 2.4386408642 3.3157762539 2.7794504059 3.0976198097 5.766677051 
3.4156325496 8.4109188411 7.0196926052 6.3715470054 9.4270259473 7.1952788516 2.3769486833 3.2530021323 2.7465152895 
1.0829458198 1.8300125694 1.0361052132 1.0659429883 4.0885578816 6.8498467457 6.1868647395 0.85146674229 4.4485482091 
5.9867705399 -0.08699809242 6.1166247461 2.826417678 4.023536263 4.0016030698 4.2325001467 5.2469345276 3.4022651446 
2.9709612317 3.5919577805 1.6695415872 0.44648008279 0.081743771743 0.84832899188 2.4934584752 -0.48830316364 -0.96397200262 
-0.34550826131 0.58846701945 3.1600839319 2.7640742138 2.4483373932 5.4443398618 8.9910194462 5.9687558576 2.1272779113 
5.5901856711 6.5933833503 2.4816538649 4.8906964127 8.2789106271 5.3025044057 8.4129766423 5.0192121141 6.7194436434 
3.1061645738 4.8636167493 -1.01856539 0.72787201611 1.9614276248 -0.79800826145 -2.2735755769 1.3621799714 0.82391083552 
-4.1425894466 -3.5702430572 -4.4288794865 -3.5768082354 -2.4220756143 -2.7233187935 -2.2097440773 0.94411959155 0.38182349164 
-0.45360136004 -2.5630912012 -4.4250898924 2.8756775882 2.5596576833 1.8009116605 2.0350260775 -0.59160055209 1.8226727462 
-3.1851403396 -4.3822528422 -1.1676907869 -1.665150279 -3.3666556072 -5.1814187901 -1.7038321114 -4.7834730613 -5.4719519681 
-4.56811423 -1.9564150176 -3.8051570927 -3.2187270723 1.2955361113 -4.9052197333 -6.2490907281 -6.1979601323 -4.7722081798 
-3.3513836851 -5.5592961889 -0.2703183547 -0.3718372963 0.20268258395 -1.600685618 -3.5139235408 -0.22512355608 -3.4838076841 
-2.591728496 -1.0015051981 -4.1087227918 -1.3002775197 1.8344530847 1.6901228416 2.7475942413 0.29583272753 0.37961696539 
5.0253875095 4.5389871649 7.8361556284 4.7763440566 5.0589366301 1.0826635848 1.3981327225 4.8877556104 3.2305693545 
5.3650640712 -1.5231035708 5.0034434215 2.478682969 4.9774270991 1.9678262516 4.8462830793 4.0750461697 8.7239503253 
6.261607916 5.1957086243 7.7217041616 3.3100053711 -3.1464889464 4.0822711612 -0.25683895597 0.67207438083 3.8885117712 
3.0634529957 4.4991656852 4.9730877314 2.6468485612 -0.18162273621 3.175395065 2.9523836408 3.1087368143 -0.7879612409 
-0.6807589916 -1.3242483757 1.9874589841 3.0213868877 0.6896162991 0.39449482329 
