# vtk DataFile Version 5.1
vtk output
ASCII
DATASET POLYDATA
POINTS 356 float
-0.385858 -0.3853 -0.827505 -0.0373783 0.106894 7.44381 0.10191 7.00288 -0.451501 
0.34325 6.65861 7.37471 7.41539 0.349757 -0.488513 7.26246 0.627784 7.3974 
7.30747 6.85482 -0.160853 6.68217 6.26586 7.00359 -1.04919 -0.845423 0.22352 
-1.45505 -1.00576 1.63542 -1.65749 -1.06677 3.11263 -1.61374 -0.937999 4.46446 
-1.25212 -0.748397 5.73635 -0.61906 -0.417152 6.76251 -1.02812 0.3856 -1.00767 
-0.629987 1.58374 -1.41999 -0.970956 3.02719 -1.49749 -0.983319 4.50478 -1.17365 
-0.775625 5.6351 -0.864004 -0.401846 6.67437 -0.967821 -0.416073 7.46086 0.476933 
-0.658075 7.45511 1.81777 -0.735351 7.57763 3.20534 -0.694014 7.54999 4.55049 
-0.274222 7.23515 5.70975 -0.031305 7.01455 6.80736 -0.457429 0.73195 7.60313 
-0.292162 1.80333 8.01173 -0.524229 3.1496 7.96584 -0.518153 4.36374 7.81271 
-0.335599 5.52591 7.65494 0.190533 6.21647 7.71542 7.67541 -0.0139124 0.345466 
8.11127 -0.492546 1.5215 8.11962 -0.580715 3.06796 8.05283 -0.425717 4.51543 
8.00283 -0.19904 5.84039 7.70487 0.155098 6.83689 7.6832 0.880596 -0.571968 
7.5459 1.90924 -0.948211 7.70638 3.20429 -0.880256 7.96852 4.51636 -0.750811 
7.92006 5.62488 -0.485681 7.27088 6.26104 -0.409385 7.2999 7.15211 0.677146 
7.31798 7.47644 1.83315 7.39604 7.33885 3.26266 7.10658 7.28732 4.46639 
7.16724 7.1427 5.63341 6.78026 6.57158 6.50453 7.5747 1.07199 7.5012 
7.25081 2.05435 7.52154 7.59915 3.19257 7.64569 7.32575 4.26827 7.44421 
7.2386 5.31552 7.14851 6.88067 5.86547 7.29931 0.614862 -0.559514 -1.34935 
1.91741 -0.965565 -1.3348 3.42957 -0.983581 -1.5557 4.77999 -0.702616 -1.49135 
5.88034 -0.345002 -1.29385 6.86609 -0.00248486 -0.849933 0.923696 0.00889635 7.75702 
2.06896 -0.408241 7.96698 3.51278 -0.280712 7.83372 4.84013 -0.260039 8.12904 
5.77772 0.183594 7.84616 6.75105 0.296541 7.5966 0.689883 7.17914 -1.07044 
1.76204 7.66705 -1.18331 3.34991 7.74652 -1.34475 4.66051 7.35323 -1.16581 
5.67378 7.21045 -1.04987 6.53589 7.09021 -0.546032 0.945998 6.79221 7.99712 
2.02759 6.93842 7.74297 3.36331 6.83336 7.7296 4.56596 6.82286 7.81293 
5.47397 6.66688 7.7711 6.13671 6.38665 7.28719 -2.04808 -0.458038 3.79989 
-2.18769 4.80159 0.99443 -1.75655 4.73628 6.28493 -1.54499 -0.0975327 6.50303 
-1.53029 -0.150869 0.936128 -1.35259 2.36521 7.41564 -0.348529 6.14819 7.18063 
-1.3854 6.652 5.12048 -1.85911 2.35793 -0.546157 -1.67601 6.76385 2.53495 
-0.775196 6.55087 -0.120702 -2.77145 4.68038 3.81217 -2.78849 2.41563 2.45477 
-2.64332 2.29914 5.12199 -0.79073 0.142301 7.39379 -1.83141 -0.312777 5.1147 
-1.98777 -0.458326 2.35912 -0.913477 -0.0375869 -0.382832 -1.55578 3.71303 7.11585 
-1.40995 4.91118 7.29491 -1.13104 5.64166 6.65227 -1.89914 5.79297 5.8103 
-0.898829 6.5326 6.25637 -1.90027 3.67427 -0.164257 -1.92881 4.965 -0.315226 
-2.23668 5.81777 1.76736 -1.72972 5.83149 0.429749 -1.3237 6.66186 1.16837 
-1.61724 6.70149 3.85585 -2.33112 5.78676 3.25975 -2.72933 4.79381 2.54908 
-2.31533 5.89165 4.55646 -2.4772 4.83478 5.11644 -2.88847 3.71606 1.79573 
-2.24771 2.35245 0.822932 -1.7555 0.518332 -0.0600552 -2.34082 0.300972 1.64838 
-2.54549 0.0990165 3.09659 -2.63771 3.58723 5.71305 -2.1149 2.28114 6.43021 
-2.41201 0.175827 4.496 -2.00054 0.386819 5.70749 -1.22444 0.806901 6.88902 
-2.9321 2.32391 3.74425 -2.84757 3.62444 4.44205 -2.92333 3.69608 3.16474 
8.5948 0.103085 3.73893 8.59441 4.76079 1.23723 8.26853 4.66703 6.11744 
7.64952 0.76229 6.14136 8.34715 0.309647 0.916732 8.045 2.53461 7.05051 
7.394 6.09183 6.86728 7.75347 6.33703 4.94426 8.42936 2.41675 -0.169634 
7.91586 6.55873 2.56015 7.56773 6.30596 0.228484 8.86111 4.60651 3.83662 
8.75216 2.38217 2.30825 8.56669 2.38215 5.02431 7.29605 0.992202 6.83358 
8.14633 0.410707 5.04751 8.12829 0.246408 2.39278 8.00484 0.544872 -0.259831 
8.07774 3.64133 6.61158 7.94805 4.68286 6.97739 7.72515 5.38262 6.47831 
8.14932 5.59781 5.53213 7.53078 6.22912 6.04219 8.46319 3.71862 0.202064 
8.20857 4.81886 0.229254 8.43083 5.72675 1.92519 8.11587 5.68533 0.721541 
7.77064 6.39121 1.29107 8.0345 6.59984 3.92345 8.41853 5.70056 3.21801 
8.65632 4.77341 2.47025 8.33411 5.54646 4.40429 8.50005 4.69422 5.0558 
8.85047 3.65073 1.80089 8.5592 2.40501 1.11002 8.03719 1.16383 0.253769 
8.50766 0.880771 1.67471 8.41458 0.911423 3.04162 8.75032 3.53219 5.5698 
8.21464 2.49938 6.15939 8.50719 0.883137 4.45678 8.46286 1.021 5.74563 
8.03704 1.27475 6.89519 8.82796 2.28551 3.8014 8.61373 3.53912 4.35604 
8.75198 3.59749 3.09162 2.94244 -2.28923 0.75884 3.00548 -1.92335 6.32379 
7.49791 -0.953177 3.79994 7.40774 -0.498001 6.44535 7.38715 -0.733093 0.789923 
5.52067 -0.68149 7.38386 0.825812 -0.804643 7.36845 0.497371 -1.82717 5.08434 
5.52772 -1.34259 -0.564061 0.411754 -2.00883 2.37222 0.643271 -1.13592 -0.33469 
3.01987 -2.78376 3.75029 5.41526 -2.24454 2.32117 5.53467 -2.01322 5.15766 
7.09608 0.201443 7.19065 7.53758 -0.833013 5.15783 7.42239 -0.846797 2.32114 
7.40014 -0.394658 -0.487008 4.34613 -1.44943 7.20227 2.93561 -1.30339 7.4421 
1.88969 -1.35373 6.68313 1.77397 -2.11296 5.72583 0.553533 -1.36779 6.29296 
4.2439 -1.68628 -0.141644 2.92169 -1.77022 -0.51308 1.75497 -2.33358 1.68732 
1.83308 -1.89656 0.19825 0.463071 -1.67517 0.935533 0.469097 -2.04301 3.78056 
1.75208 -2.61967 3.09234 3.04418 -2.69441 2.37815 1.78775 -2.50212 4.45616 
3.11393 -2.48885 5.08852 4.22637 -2.48944 1.58827 5.50815 -1.87256 0.684338 
6.72347 -0.75098 0.0527199 7.05036 -1.45288 1.49537 7.21841 -1.68662 3.02693 
4.25254 -2.20603 5.6751 5.4653 -1.44898 6.46976 7.19767 -1.5664 4.54686 
7.02922 -1.15576 5.89038 6.78001 -0.447844 7.06223 5.43614 -2.27688 3.75347 
4.23124 -2.55682 4.35845 4.14726 -2.67294 3.08933 2.76005 8.45758 1.01696 
2.94887 8.11325 6.35645 6.87174 7.83708 3.71523 6.62921 7.21696 6.24343 
6.62606 7.28476 1.21064 5.10676 7.14814 6.97844 0.9979 7.17453 7.09692 
0.501685 8.07664 5.16019 5.23548 8.03457 -0.176831 0.329389 8.20876 2.53054 
0.668133 7.53554 -0.00111575 2.89747 8.60924 3.91934 5.15579 8.37447 2.46849 
5.20622 8.26343 5.29628 6.51533 6.76235 7.0198 6.69688 7.45339 5.08446 
6.70593 7.55495 2.66219 6.6998 7.05181 0.0871477 4.09339 7.70824 7.18393 
2.8896 7.4905 7.18407 1.91819 7.80665 6.87036 1.76728 8.10494 5.74402 
0.68406 7.73464 6.34469 3.96931 8.2826 0.0487441 2.77324 8.05878 -0.171737 
1.54202 8.54062 1.79718 1.70485 8.29687 0.340347 0.542843 7.8967 1.16334 
0.441263 8.10289 3.91605 1.55303 8.61188 3.1862 2.80826 8.78581 2.47449 
1.60373 8.52099 4.52961 2.87245 8.61605 5.21661 4.09135 8.60799 1.70024 
5.16588 8.13916 1.07922 6.33675 7.76647 0.4249 6.41883 8.07528 1.76711 
6.22828 8.14525 3.19826 3.9825 8.12368 5.7125 5.15035 7.85888 6.29905 
6.29235 7.83867 4.54171 6.21023 7.63766 5.62304 6.09639 7.18003 6.80872 
5.26345 8.36852 4.00143 4.02274 8.66008 4.56067 4.15124 8.64574 3.13738 
1.19704 2.68965 -2.7954 6.23938 2.90832 -2.36581 4.00551 7.21663 -1.95994 
6.35395 6.82926 -1.15087 1.21476 6.88123 -1.51343 7.13665 5.09908 -1.25464 
7.22061 0.924829 -1.29668 5.21476 0.388102 -2.27491 -0.178086 5.236 -2.08257 
2.7004 0.247914 -2.48823 0.0738438 0.453566 -1.56777 4.0438 2.77523 -3.22754 
2.58242 5.14731 -2.86539 5.30298 5.27182 -2.62373 6.99417 6.74539 -0.573689 
5.25254 7.17772 -1.79158 2.61569 7.08129 -1.67215 0.204622 6.80716 -0.990782 
7.17144 3.987 -1.87727 7.24857 2.71685 -1.91299 6.69216 1.72793 -1.94222 
5.72132 1.56492 -2.5615 6.19223 0.629666 -1.71157 0.119457 3.85377 -2.30109 
-0.0378898 2.59673 -2.20814 2.02295 1.39373 -2.74233 0.60779 1.54528 -2.48987 
1.25801 0.376057 -2.02594 4.11616 0.405561 -2.35965 3.31647 1.46587 -2.9377 
2.66375 2.79337 -3.11378 4.63623 1.61031 -2.79175 5.26611 2.82279 -2.96455 
1.95675 3.89824 -3.03224 1.15803 5.13775 -2.37706 0.396648 6.41219 -1.62564 
1.85742 6.57411 -2.14792 3.30543 6.70933 -2.28215 5.70156 3.94116 -2.67162 
6.42651 5.19691 -2.14813 4.65866 6.60474 -2.07501 5.78716 6.46308 -1.69146 
6.94264 6.25459 -1.24972 4.03111 5.16033 -2.85119 4.55026 3.89716 -2.944 
3.36346 3.98558 -3.13181 1.29454 2.79794 8.75832 6.10238 2.97684 8.47609 
3.96732 6.55994 8.23801 6.13391 6.23772 7.61967 1.50965 6.2902 7.91645 
6.98015 4.95894 8.03025 6.85373 1.26054 7.67575 5.23031 0.865952 8.39311 
0.228215 4.97638 8.41222 2.73933 0.604393 8.68444 0.360493 0.723287 8.18026 
3.91979 2.90928 9.21062 2.68865 5.01154 8.97846 5.1222 4.93753 8.55646 
6.69388 6.25626 7.55844 4.9758 6.31979 8.04005 2.71236 6.5914 8.2368 
0.67993 6.19771 7.58892 6.63213 3.90533 8.1648 6.96684 2.8208 8.19706 
6.57911 1.97807 8.20186 5.71176 1.83929 8.76925 6.15387 0.953561 8.11358 
0.551532 3.85697 8.64646 0.174571 2.63655 8.73222 2.06554 1.65658 9.00243 
0.865079 1.69554 8.63824 1.42125 0.712944 8.29213 4.06531 0.597465 8.69165 
3.40016 1.71312 8.80827 2.66744 2.87736 9.21507 4.59204 1.82983 8.96726 
5.23091 2.90957 8.83192 2.04182 3.97893 8.99689 1.36617 4.95305 8.51921 
0.744384 5.86797 8.06624 2.06775 5.95207 8.53778 3.28135 5.9871 8.41585 
5.67489 4.00599 8.96725 6.0507 4.94553 8.28079 4.53648 5.9479 8.48098 
5.56572 6.03718 8.27641 6.34725 5.73199 7.6991 3.91318 5.09292 8.96772 
4.53554 4.00928 9.1121 3.34035 3.99165 8.94929 
POLYGONS 709 2124
OFFSETS vtktypeint64
0 3 6 9 12 15 18 21 24 
27 30 33 36 39 42 45 48 51 
54 57 60 63 66 69 72 75 78 
81 84 87 90 93 96 99 102 105 
108 111 114 117 120 123 126 129 132 
135 138 141 144 147 150 153 156 159 
162 165 168 171 174 177 180 183 186 
189 192 195 198 201 204 207 210 213 
216 219 222 225 228 231 234 237 240 
243 246 249 252 255 258 261 264 267 
270 273 276 279 282 285 288 291 294 
297 300 303 306 309 312 315 318 321 
324 327 330 333 336 339 342 345 348 
351 354 357 360 363 366 369 372 375 
378 381 384 387 390 393 396 399 402 
405 408 411 414 417 420 423 426 429 
432 435 438 441 444 447 450 453 456 
459 462 465 468 471 474 477 480 483 
486 489 492 495 498 501 504 507 510 
513 516 519 522 525 528 531 534 537 
540 543 546 549 552 555 558 561 564 
567 570 573 576 579 582 585 588 591 
594 597 600 603 606 609 612 615 618 
621 624 627 630 633 636 639 642 645 
[...]
CELL_DATA 708
SCALARS scalars double
LOOKUP_TABLE default
-2.6304522712 -7.5660276473 -5.0413855478 -5.7782862211 -5.8116458264 -6.029402958 -7.6764721934 -6.0115520521 -5.9514014017 
-4.7943488567 -3.2063074538 -4.3595408048 -3.3059852895 -1.6710232885 0.68485614398 -0.62017383103 -0.59199680226 0.84668931861 
1.8525875182 1.0320427427 2.1020421663 4.3832819218 6.7167807598 4.4799611245 6.0904702799 7.56677309 7.5080014338 
4.9213673322 4.8915458668 4.4798729987 4.9969761712 4.3542651043 6.6026135357 -1.9229654466 -2.2726211055 -0.44940335493 
1.5399850289 1.266669221 -0.98690316896 2.1758610384 6.3059905876 6.4232865065 6.0890436181 7.8749096824 5.4046090547 
6.0117303509 6.9569153406 7.269229121 4.6333834978 3.360976935 5.962705014 3.1315299535 8.7224960459 2.8558615542 
6.6392963345 7.0504976957 5.3454315654 7.3139792892 7.2213342451 1.9989500705 3.7079107998 4.020853073 6.5009876003 
2.4422199351 1.2401605348 3.0750275233 3.6198575824 7.1770686882 5.8788542021 6.3142762244 2.3316835497 0.49025129629 
-2.2280879769 -0.99531848454 0.51277333976 -6.5002971535 -4.7647663433 -1.4631159613 -7.0560289345 -5.5034084585 -6.0311582971 
-5.5569393502 -6.8612558415 -0.82010964389 -1.2545077386 -0.91452863311 3.0735235845 -1.6463193895 0.16550726104 0.1752380771 
-2.0190562655 -5.6405326593 -5.4212939124 -4.9319955866 -3.026116648 -4.5084728412 0.73841595461 -2.9458838306 1.1886427304 
-2.6588899933 -1.9425775476 -2.7233321957 -5.8213242893 -1.6407056128 -1.3619021242 -1.9955290334 -0.69375650238 3.4653044202 
1.8587976517 2.0321566773 -0.90054030688 1.6411579968 3.4564112797 1.6158656488 1.1026522182 -0.41592942562 -0.45969872499 
0.32128349443 -2.5724033881 4.1677413121 -3.5807055427 -1.5034169341 -2.8221621216 -6.3393369541 2.8981619244 -1.9279930779 
-0.15609354634 -2.7793115788 -5.5970756436 -2.648712581 -7.6693467171 2.2924397338 -0.060085216991 -1.7350386132 -2.6717776616 
1.6126204998 2.7705233364 3.0024894959 3.8560174188 3.1875986081 5.8878060021 4.1328027343 6.5783806836 4.4401418173 
5.1306120975 7.8747541975 8.2760873796 1.6780961167 4.767150355 0.52522084993 5.7220999208 -0.44989117483 -4.1325253307 
2.2013347371 1.5538068962 -1.1513529374 2.2228867315 3.3174696156 6.0879016738 5.55314895 5.6923649546 5.4992370642 
3.9161306358 3.559433603 4.3885200402 4.4691991013 5.7978370982 2.8309729638 1.9799778082 1.0579704954 1.2298866061 
6.9040726269 6.4125885182 5.7218639839 5.1591289296 6.0553785361 7.3311785807 2.0206863879 3.2319614922 2.3775071336 
5.3712953658 3.5978260881 2.5432751705 2.9241976629 4.2965340206 3.9674357477 4.5054907112 3.1737967428 1.064590184 
0.029583873296 -1.3972843224 -0.93947839087 -0.19091567686 -3.5083466137 -2.6564619095 -1.8940993626 3.4523851786 -2.935126544 
-1.8174855716 -4.5182083656 1.1893042298 -0.92513019471 -3.2738956353 -1.5675521845 1.0004948753 -2.9181638247 0.44385400081 
-1.1737188905 -0.54809351345 -2.9911090833 -1.0584690185 -5.3453793653 -1.0533523245 -0.30803002768 -8.3334815359 -5.0757194283 
-9.3262703433 -0.29381951761 0.79702166608 0.64375411662 1.6672447586 -1.2042213468 -2.5411539259 -2.5264166945 -1.0475882667 
2.9404307271 -0.80798215569 1.6279335184 -0.47583772066 0.022763493405 1.9972955132 1.2303124052 -1.7880931733 0.31499353846 
0.7725433584 1.1844113414 -5.9994942783 -5.2143966673 -6.9780998903 -6.8136610963 -5.9395572905 -7.8852104356 -5.709870261 
-5.522380597 -9.1218948215 -6.7675231487 -5.6521335259 -8.0380198969 -0.13061257238 -0.20122418212 -5.5522151966 -8.7478408694 
-4.0965268277 -5.2084465164 -6.6164101238 -4.1328927979 -5.6019782646 -7.5870002264 -8.6383980447 -8.6377006296 -7.6111698115 
-8.514387382 -7.5938584632 -4.8424332303 -7.5902722984 -3.816598699 -8.4543206526 -8.0277084508 -7.1572010653 -3.7631962057 
-6.3056754698 -6.043830625 -9.125207842 -8.1278053733 -8.2790971138 -8.2653706634 -9.3966072683 -9.1485997304 -8.412479197 
-9.110972876 -8.9221443937 -8.6754448632 -8.1030473953 -7.8207676192 -8.9537836006 -8.9278511806 -8.1067543687 -9.1796009668 
-8.2385650094 -7.6985094202 -8.4323356323 -8.9283926714 -8.6277677327 -9.2790086745 -9.0941189319 -8.921414308 -9.6193050017 
-9.9334644816 -9.6641859287 -9.0067556209 -9.7067502232 -9.0960284528 -9.4856425402 -9.8085542051 -9.0448488231 -9.110179263 
-9.2550384824 -8.9995900652 -9.1475148685 -9.3040435382 -8.9870938349 -7.1147961718 -5.7831110316 -9.1794217545 -7.5540764002 
-7.2291322489 -6.0714411717 -3.5444877281 -7.0564638272 -9.1788511987 -7.7331598641 -7.5665750291 -8.9638961536 -8.7375722893 
-7.194465353 -8.6897508713 -8.8181862254 -5.7493511948 -6.6459770594 -5.8285327039 -5.1746625476 -3.7683741663 -7.119766632 
-5.2730054957 -4.3490441129 -7.4112807095 -8.6825838093 -7.6968664822 -3.9575100557 -9.3845552271 -9.5208330924 -9.3632800122 
-9.3887452484 -9.0883211426 -9.7476210568 -9.6110321164 -9.5963429183 -9.961267279 -9.6999230286 -9.8880203698 -9.8624562597 
-9.5173173826 -9.4198299866 -9.6315706167 4.1080140354 2.8788465827 8.8337576798 8.7344966782 7.4960353282 6.1206172482 
4.0032748242 7.6089143482 9.6904598546 5.9079655927 9.6264301487 5.6696816089 9.5344905687 9.2963140346 4.1869707877 
7.9566744577 5.8859688498 8.7535262791 6.6363708415 6.6268515924 5.5961132165 9.5103892072 6.9287643277 9.4199252277 
9.4637032302 7.4567732576 7.6127810133 7.1248214111 7.049869074 9.2060846914 7.9520247042 6.6174182703 7.090699344 
8.0597101517 7.5868107645 7.5147847543 9.4108540396 8.0749760295 8.3184835084 9.4327198278 9.8468347659 8.7833508255 
8.1269527738 8.7617365677 8.2534547361 9.2938072594 8.0004557843 7.8050189468 9.2491528637 8.4917701968 8.0611738656 
9.4660911473 9.2421580165 9.5333675169 8.5776258026 9.0685972745 7.4875740069 9.5592277198 8.8314925701 9.0543782315 
9.7351212217 9.8993375606 9.851599416 9.233976573 9.9744355759 8.8774101659 9.0400702754 9.9699713789 9.3397095053 
9.2788935128 9.246540364 9.8123539602 9.8115261356 9.3521155504 9.3495928869 7.9208272459 8.2924510296 9.7513671321 
5.1339620436 8.0340215192 7.9589766273 5.8259289957 3.3905586284 9.7641059764 9.6080908923 9.5700049876 9.5424411329 
9.2673535863 5.9746129182 9.6056411211 8.5957516391 8.1118141932 8.532610563 8.270565851 8.6498264054 7.2615908976 
8.6978777075 1.3306972703 5.1771377546 6.8412434917 8.3956638796 8.3863348903 9.3655868332 9.0408763994 9.7623420111 
9.0988361228 9.0523496519 8.9643345111 9.9911204463 8.8448509087 9.7050092355 9.9194090203 9.7554829846 9.9243129554 
9.9920677695 9.6762420855 9.5980565924 9.7227554781 6.7168842212 6.8438779302 4.9547578358 9.7964052305 6.5839745239 
8.5861426725 8.0175253518 6.5120492112 5.3549367785 5.8202171493 5.5236623158 6.151077676 9.0496715468 7.0653697394 
7.043676418 0.50834686377 0.66763118324 2.0949011552 3.8272200537 -0.95570429291 -1.1387200482 -0.89334039644 -3.7101734061 
-4.0891083478 -4.0107699125 -4.7162783481 -4.7120546918 -5.131174276 -5.2094303851 -0.85650799642 -1.8316497711 -0.214595759 
-3.9502195597 -4.5153325244 2.8646633442 5.2935646893 -0.13149794196 -0.48566350577 1.556100171 0.16158644139 -1.6075226019 
-3.7817601049 -5.041323244 -4.5674412005 -6.4298651536 -3.7460543664 -4.9240646013 -4.2069723634 -5.0988815044 -5.490163015 
-2.9818604079 -0.20792560957 -1.9789612587 -1.9287462544 -1.5817449042 -5.9631573064 -6.3403942275 -2.8598761933 -5.45703401 
-5.5075361205 -1.6574562828 -1.7111556061 -1.95590386 -3.070634955 -2.4545149534 -0.80165008422 -2.3565626884 -2.8562693352 
-3.6197658103 -3.9928504742 -3.8830729237 0.51033459378 1.0931957189 2.7816993287 2.4109354539 1.381021895 6.2951743827 
3.9602354884 8.0449669231 6.6277656542 6.6670655934 7.7460112926 6.9470569309 2.9576479808 4.2607638932 3.1149856934 
-0.12704465061 1.5060676396 3.3852181403 0.93684676177 4.9255299543 7.0648597695 6.5143740056 1.1786758019 1.1334947196 
6.8915385997 5.2490450812 2.1580438796 3.7712441367 1.3403052994 4.7476449052 4.7962287511 3.5260286001 4.2791584724 
3.4732730435 4.0862124264 1.0235533633 0.19771302968 1.5319930936 1.6566904229 1.7131439677 0.32872325139 -0.60808952193 
0.27333753787 1.7034452133 2.2830251543 1.3858853633 1.3951255828 4.0676226166 9.7491713896 6.2460405899 4.9044956724 
5.7437233536 8.6669214808 7.504404485 5.643339496 8.6066918168 5.4878412214 0.87070259185 2.2455474655 5.4309604654 
-1.7545332762 1.4855786892 1.2833615052 2.0079914721 1.7314364343 -1.6644495667 -2.8917060998 2.9301373988 0.2936004311 
-3.1199349189 -4.6826915661 -2.9749354111 -4.3986163557 -4.3117895866 -1.1904130673 -1.2714760627 0.62508539471 -1.2533566815 
-2.2262150401 -3.1504952759 -3.1954080668 2.0305664601 5.3558374506 0.80762637903 -0.14439536002 1.0478654948 2.4599923742 
0.087568477191 -4.4181453213 -3.8074841312 -4.5310000229 -6.2780871987 -5.6037984297 -5.1309058135 -6.483311625 -4.2601644376 
-4.1756917474 -1.5636916312 -1.0519035849 -4.1742493368 -1.1138588954 -2.1673899857 -3.1590581579 -3.4177627074 -1.9720972516 
-6.9636154337 -6.3743969041 -0.099123497669 -3.2331556158 -2.4084451585 -4.241040556 -0.43727963617 1.1141165999 0.2049352834 
-2.7781343378 -3.3014406035 -1.0748179451 -1.7022366928 -0.54612370878 1.7947708606 2.2221683407 2.870796086 2.352715631 
0.3590582427 4.6341966478 8.2119904041 6.0266242394 6.1419134248 3.5443034131 7.2066678981 2.1386535669 3.9945008551 
2.2161840065 -1.0356972161 5.0779223568 0.37489691251 2.7412603414 1.7512532922 5.7617249209 5.7923043092 7.252576812 
6.7364941973 4.3256551228 3.7555266969 4.3737862179 -2.0625422143 5.2742395148 1.2875211501 2.8680950569 3.3777164033 
2.6499459334 5.1141592714 5.1024207146 4.5649399127 -2.6399812701 -0.69129844556 -1.7077107692 -0.051436995795 2.3343022928 
0.083744939794 2.1256627211 1.6338169041 -0.22050440959 3.142454022 0.53960220861 
