# vtk DataFile Version 5.1
vtk output
ASCII
DATASET POLYDATA
POINTS 356 float
-0.35804 -0.381765 -0.741069 -0.14935 -0.10531 7.44054 0.0147953 7.03994 -0.447009 
0.528507 6.4283 7.19663 7.39354 0.306535 -0.607439 7.19148 0.634695 7.35299 
7.06536 6.73364 -0.0516011 6.63386 6.20221 6.95356 -1.0067 -0.802972 0.297063 
-1.51522 -1.01754 1.60589 -1.61049 -0.978087 3.0842 -1.60316 -0.983328 4.43836 
-1.21447 -0.703327 5.72377 -0.719012 -0.401569 6.77974 -0.948368 0.346932 -0.975437 
-0.689985 1.56147 -1.44957 -1.01245 2.95486 -1.49714 -1.13059 4.51959 -1.31709 
-0.947256 5.67087 -0.933679 -0.236482 6.53899 -0.897011 -0.312597 7.34004 0.476509 
-0.561057 7.24295 1.83278 -0.777142 7.53044 3.13415 -0.73486 7.51921 4.54612 
-0.501066 7.24444 5.73286 -0.0752553 6.92059 6.7149 -0.537107 0.623818 7.55226 
-0.246214 1.77236 7.928 -0.568386 3.16707 7.9652 -0.488949 4.30809 7.83508 
-0.289052 5.40594 7.56503 -0.0326124 6.17705 7.64611 7.6968 -0.098969 0.217954 
8.02536 -0.453422 1.43936 8.20279 -0.629632 3.0068 8.14692 -0.503877 4.43553 
7.75501 -0.0657897 5.6743 7.51407 0.257984 6.70357 7.74961 0.859182 -0.540386 
7.55503 1.85652 -1.10111 7.80096 3.1172 -1.00122 7.71475 4.41672 -0.656728 
7.70813 5.55742 -0.452658 7.23602 6.26168 -0.393304 7.08604 7.00108 0.684269 
7.19523 7.21077 1.85146 7.29725 7.27128 3.18598 7.09349 7.15953 4.39179 
7.04354 6.94838 5.54341 6.81598 6.5779 6.5077 7.3773 1.21633 7.20986 
7.20891 2.02663 7.55363 7.40433 3.21691 7.46215 7.25847 4.22991 7.40818 
7.11216 5.27148 7.12561 6.75618 5.81952 7.24367 0.538308 -0.606413 -1.40743 
1.88654 -0.977968 -1.39466 3.30761 -0.924642 -1.52484 4.73033 -0.802351 -1.6148 
5.78487 -0.355117 -1.20248 6.91533 -0.124954 -0.980269 0.908883 -0.0264462 7.66954 
2.01776 -0.574715 7.83523 3.45597 -0.470705 8.08295 4.76081 -0.200395 7.7138 
5.81164 0.0881238 7.65847 6.61492 0.372198 7.62525 0.705031 7.18081 -1.10743 
1.70329 7.57985 -1.14896 3.3322 7.75302 -1.4389 4.66226 7.51763 -1.40106 
5.69715 7.28051 -1.10148 6.52852 6.91627 -0.551339 0.97647 6.60079 7.61602 
2.07508 6.70799 7.56468 3.24313 6.70971 7.648 4.51145 6.84544 7.69624 
5.46984 6.62246 7.74091 6.16731 6.3432 7.25772 -2.22408 -0.612958 3.77522 
-2.42193 4.74913 0.93862 -2.02653 4.70402 6.3504 -1.28148 0.0137124 6.26765 
-1.73637 -0.262299 0.838099 -1.33984 2.20971 7.41802 -0.485466 6.27207 7.05137 
-1.54288 6.64399 5.07295 -1.82694 2.28861 -0.52099 -1.75544 6.76396 2.45398 
-0.779814 6.37885 -0.111784 -2.81883 4.69482 3.81733 -2.84157 2.29437 2.34165 
-2.59317 2.16446 5.13629 -0.512519 0.362892 7.01418 -1.83185 -0.411583 5.06504 
-1.9965 -0.463926 2.32906 -0.953099 -0.098867 -0.390373 -1.59588 3.56847 7.0053 
-1.32182 4.79091 7.25772 -1.16673 5.56706 6.71999 -1.8142 5.70903 5.69116 
-0.924393 6.33974 6.13301 -1.96225 3.68031 -0.176845 -2.01284 4.91822 -0.321718 
-2.17582 5.7525 1.76247 -1.6598 5.67297 0.465929 -1.38191 6.686 1.03393 
-1.4911 6.56991 3.86196 -2.38261 5.79232 3.17782 -2.82327 4.79724 2.43885 
-2.28982 5.72745 4.45862 -2.42797 4.7514 5.10278 -2.82831 3.64948 1.72265 
-2.50449 2.32066 0.722847 -1.69268 0.518112 -0.0927058 -2.38335 0.307545 1.56419 
-2.58326 0.114313 3.07138 -2.59638 3.54659 5.68681 -2.11289 2.35996 6.36034 
-2.34829 0.181364 4.43568 -2.02967 0.342508 5.78144 -1.36481 0.66069 6.97141 
-3.0943 2.17544 3.83138 -3.00962 3.56223 4.42583 -3.1431 3.62081 3.11305 
8.06426 0.282995 3.7171 8.56789 4.71166 1.19409 8.18037 4.54796 6.08105 
7.99906 0.583734 6.21417 7.91063 0.483238 0.906159 7.94337 2.44262 6.98913 
7.28642 5.96035 6.7808 7.77498 6.38813 4.97805 8.01015 2.35954 -0.0825911 
7.80905 6.58093 2.49905 7.56647 6.27919 0.251238 8.74635 4.66818 3.67941 
8.61393 2.35777 2.31335 8.57416 2.44173 5.02645 7.62586 0.70684 7.16154 
8.20777 0.238216 5.2294 8.1585 0.205941 2.29442 7.81608 0.514445 -0.201636 
7.9202 3.61777 6.60763 7.78036 4.64457 6.882 7.66091 5.33644 6.43555 
8.16793 5.57921 5.5289 7.4507 6.18051 6.00384 8.1999 3.65195 0.161234 
8.31507 4.82155 0.168983 8.37454 5.7127 1.85494 8.02459 5.57054 0.661566 
8.003 6.4795 1.25 7.90508 6.53342 3.78128 8.40624 5.64932 3.17397 
8.5695 4.67838 2.43221 8.15595 5.51551 4.43227 8.48014 4.59998 4.94922 
8.79117 3.61669 1.73772 8.57741 2.374 1.02107 8.11376 1.02688 0.215894 
8.53133 0.872894 1.65743 8.54693 0.807221 2.98147 8.60744 3.55298 5.56544 
8.25821 2.49684 6.07259 8.62179 0.844427 4.39406 8.24318 1.04369 5.59283 
7.73593 1.23395 6.6499 8.73196 2.19241 3.66686 8.60792 3.46171 4.41418 
8.87727 3.56716 3.06364 2.96938 -2.17675 0.823595 3.00888 -1.98995 6.27047 
7.50438 -1.04135 3.75343 7.35026 -0.445607 6.42461 7.42416 -0.834979 0.716542 
5.42355 -0.929968 7.33903 0.800919 -0.662887 7.07745 0.387827 -1.94802 5.04299 
5.38088 -1.3206 -0.542404 0.339387 -2.08269 2.3297 0.66557 -1.07788 -0.352098 
3.05508 -2.74061 3.7111 5.42155 -2.24657 2.26957 5.51935 -2.06786 5.09547 
6.93369 0.255633 7.02835 7.57373 -1.04464 5.26325 7.5336 -0.939319 2.27984 
7.02447 -0.101022 -0.267224 4.21339 -1.43055 7.1481 2.94943 -1.21656 7.17417 
1.83699 -1.54828 6.87798 1.68625 -2.14793 5.69419 0.547134 -1.39757 6.27201 
4.25398 -1.94769 -0.336136 2.8731 -1.75961 -0.488962 1.67216 -2.52074 1.63266 
1.78095 -2.03342 0.152392 0.538608 -1.68392 0.901955 0.394304 -2.04959 3.70963 
1.74565 -2.50686 3.09965 3.00609 -2.72917 2.34102 1.78942 -2.47061 4.37191 
3.06341 -2.48999 5.0687 4.19412 -2.54352 1.6361 5.33773 -1.72176 0.73624 
6.8739 -0.996463 -0.137314 6.99903 -1.45764 1.46793 7.14827 -1.65757 2.98695 
4.24355 -2.17909 5.58904 5.46895 -1.46717 6.3613 7.09358 -1.51452 4.4587 
6.79118 -1.04105 5.77551 6.63269 -0.424051 6.91312 5.40498 -2.34736 3.7199 
4.17159 -2.58571 4.31114 4.13758 -2.5654 3.00513 2.75744 8.54735 0.924382 
2.90565 7.94509 6.23498 6.84532 7.82284 3.84172 6.62617 7.21251 6.19549 
6.83602 7.64191 1.14017 5.09486 7.17833 7.02224 0.791907 7.2172 7.05903 
0.418757 7.96882 5.10521 5.19638 7.67125 -0.0988843 0.300093 8.16178 2.45143 
0.64196 7.4853 -0.069432 2.72007 8.6749 3.88694 5.18688 8.39479 2.45438 
5.15129 8.21755 5.19395 6.46845 6.67775 6.96559 6.83026 7.66761 5.07226 
6.82406 7.69039 2.46683 6.91618 7.31937 0.00229291 4.11939 7.5554 6.98524 
2.89622 7.43825 7.0396 1.89883 7.68166 6.83133 1.63313 8.1424 5.72912 
0.769793 7.4357 6.14042 4.00314 8.28292 0.0749366 2.75376 7.87996 -0.164783 
1.55261 8.19805 1.77302 1.63528 8.23435 0.241518 0.453012 7.92627 1.08368 
0.389416 7.91175 3.83264 1.48355 8.68344 3.08008 2.76841 8.62201 2.41892 
1.61628 8.37335 4.51304 2.86302 8.57778 5.18095 3.97858 8.43248 1.76027 
5.12694 8.28926 0.952095 6.2157 7.68469 0.323555 6.19391 7.86547 1.82912 
6.19939 7.96402 3.1664 3.93018 8.12856 5.73636 5.08738 7.77112 6.27316 
6.14788 7.72138 4.46664 6.12064 7.54064 5.6286 5.99987 7.03213 6.70254 
5.19423 8.38528 3.94541 3.98332 8.4556 4.53082 4.03684 8.72929 3.17513 
1.10101 2.6218 -2.78944 6.39638 2.76135 -2.49381 3.94773 7.00925 -1.68511 
6.19209 6.90543 -1.39458 1.1022 6.87538 -1.63168 7.19256 5.08099 -1.46006 
7.08295 0.992051 -1.17686 5.28722 0.325611 -2.34036 -0.186997 5.19688 -2.06911 
2.66097 0.238147 -2.57106 0.0525573 0.449085 -1.65418 4.03505 2.75479 -3.32791 
2.57835 5.05018 -2.76536 5.09197 5.04778 -2.53448 7.10125 6.65437 -0.623983 
5.14782 6.85721 -1.56981 2.61294 6.90205 -1.53993 0.17707 6.81848 -1.07919 
6.99274 3.91763 -1.81522 7.06854 2.73901 -1.64083 6.70616 1.6803 -2.01924 
5.68842 1.66217 -2.56967 6.32731 0.553132 -1.84793 0.123777 3.86046 -2.40244 
-0.114375 2.56972 -2.2905 1.96324 1.34471 -2.89122 0.559119 1.48814 -2.44987 
1.20957 0.368043 -2.04528 4.05517 0.279159 -2.39924 3.30751 1.47693 -2.99528 
2.59882 2.69335 -3.29342 4.58209 1.49886 -2.98761 5.14223 2.82501 -2.94616 
2.00224 3.86434 -3.13856 1.09735 5.0093 -2.46546 0.341469 6.36065 -1.67249 
1.85626 6.50374 -2.29452 3.27547 6.69025 -2.33858 5.75946 4.01895 -2.88809 
6.35456 5.24151 -2.05539 4.64712 6.69374 -2.28848 5.79252 6.38921 -1.8368 
6.76732 6.13284 -1.07018 3.97227 5.13506 -2.88103 4.53875 3.93884 -3.11736 
3.34106 3.91094 -3.16854 1.31067 2.78019 8.83689 6.09359 2.93036 8.47929 
3.94925 6.40845 8.09217 5.93978 6.17006 7.65576 1.43676 6.45436 8.18714 
6.9236 4.85082 8.02541 6.93832 1.12669 7.72147 5.23486 0.765178 8.39649 
0.224183 4.88452 8.38978 2.71567 0.679048 8.4622 0.288886 0.634026 8.09577 
3.96058 2.79492 9.27508 2.67496 4.90279 8.68926 5.06719 4.84379 8.50634 
6.64737 6.16764 7.41475 4.88302 6.13201 7.80082 2.65889 6.46228 8.24031 
0.421792 6.37031 7.82116 6.55848 3.83022 8.11022 6.98509 2.80033 8.17012 
6.54136 1.93097 8.12345 5.67914 1.81705 8.6813 6.12013 1.03906 8.05087 
0.605949 3.81176 8.55531 0.199612 2.65007 8.63822 1.96104 1.55461 8.89301 
0.779628 1.74478 8.4026 1.44867 0.611993 8.37326 4.07006 0.470653 8.56098 
3.36735 1.66628 8.94383 2.60498 2.80522 9.03101 4.58655 1.75846 8.82756 
5.15723 2.84793 8.8367 1.99945 3.98734 9.09009 1.325 4.9107 8.51592 
0.787228 5.73495 8.01946 2.06062 5.7781 8.15558 3.27543 5.91301 8.30946 
5.63427 3.94683 8.86099 5.95305 4.89496 8.24927 4.51028 5.88339 8.35635 
5.52248 5.87628 8.05077 6.38412 5.73974 7.72871 3.88956 5.05703 8.7773 
4.51421 3.93862 8.93503 3.32463 3.911 9.0227 
POLYGONS 709 2124
OFFSETS vtktypeint64
0 3 6 9 12 15 18 21 24 
27 30 33 36 39 42 45 48 51 
54 57 60 63 66 69 72 75 78 
81 84 87 90 93 96 99 102 105 
108 111 114 117 120 123 126 129 132 
135 138 141 144 147 150 153 156 159 
162 165 168 171 174 177 180 183 186 
189 192 195 198 201 204 207 210 213 
216 219 222 225 228 231 234 237 240 
243 246 249 252 255 258 261 264 267 
270 273 276 279 282 285 288 291 294 
297 300 303 306 309 312 315 318 321 
324 327 330 333 336 339 342 345 348 
351 354 357 360 363 366 369 372 375 
378 381 384 387 390 393 396 399 402 
405 408 411 414 417 420 423 426 429 
432 435 438 441 444 447 450 453 456 
459 462 465 468 471 474 477 480 483 
486 489 492 495 498 501 504 507 510 
513 516 519 522 525 528 531 534 537 
540 543 546 549 552 555 558 561 564 
567 570 573 576 579 582 585 588 591 
594 597 600 603 606 609 612 615 618 
621 624 627 630 633 636 639 642 645 
648 651 654 657 660 663 666 669 672 
[...]
CELL_DATA 708
SCALARS scalars double
LOOKUP_TABLE default
-5.2807684393 0.050433110062 -5.7482078906 -6.5001008831 -4.8347891436 -8.590832135 -4.3617009092 -6.638049197 -6.3072209035 
-5.3045235633 -5.9020572399 -5.0503433707 -5.3325088628 -1.1969343011 0.51497285304 -0.36668992023 -1.2996003528 1.0292173761 
2.8854356428 1.3064865264 4.8581094379 5.3495972816 5.4157345339 5.7733129229 9.3815981529 5.40453324 5.3679133238 
5.4821697417 6.2646798879 1.9026537803 4.9134724589 2.8022505063 5.5362476944 -1.8349491148 -2.1806341311 -0.75734010223 
0.73739578951 0.062893039685 -1.0563284779 4.8354124792 5.1010454489 4.8008738721 4.2784543612 8.3980046277 6.0519321414 
5.9446835155 8.4359559293 8.83125261 5.9399876619 5.6763945359 6.6531371772 3.3317674004 6.474777713 5.9782846128 
6.5276409592 7.3763103303 4.6061298661 6.8516522171 6.1015569297 4.1751784661 3.85016754 4.8584909027 4.5604196315 
3.0429378539 3.7958687952 3.4913016805 4.1112975871 6.5876583334 6.4154129592 7.1699648186 0.40921957191 0.33088830217 
-0.83846076363 0.89014186107 -0.83313583753 -6.3823185841 -5.1220824561 -1.6586188657 -5.8671991593 -5.4609848967 -6.3731121822 
-5.7748157665 -4.240772374 -1.4352058811 -1.7866005601 -2.2032370235 0.46042377292 -1.5432919473 0.28248410921 0.18356793193 
-2.0474941465 -5.2972951702 -5.1228805053 -4.6569021969 -2.3480892295 -2.5626743379 -6.2312092892 -4.8366515683 -8.5813858533 
-1.5108909328 -1.4712919225 -1.8266782443 -2.9347219306 -2.3464973956 -1.7439522663 -2.9761695165 -1.2470836623 2.7484134727 
2.972690048 2.7425390722 -0.91764952179 2.7479477667 1.6629691814 1.3899262276 2.2150273546 -1.2014558376 -0.95910302686 
0.17055439102 -1.340170936 -7.0514868764 -2.9342425001 -5.0890974096 -3.1067508526 1.2913705616 -5.7179845377 -2.2587711406 
-0.47725639168 -2.1611839987 -0.35323065233 -3.3795494145 -4.8241972158 -0.53081515376 0.025298766639 -0.78552197852 -0.42440750714 
2.0194965203 2.8949462785 1.4718594075 2.9081860362 3.6875271935 5.911009343 4.4855653972 6.307433577 5.9379789341 
6.0399944094 6.1024108062 6.6003004323 2.2868611294 3.8696971086 1.1751180261 4.8360139777 -1.5424016204 -0.18426914947 
-0.93311213625 -0.85718545914 1.6265773843 -0.77427514803 3.6899808699 4.9332448713 2.9981339989 2.1521743194 6.4782968302 
6.6263915284 6.3630854923 7.9522055412 7.2223695033 4.177899504 4.5051937753 4.8597972449 1.1551302821 5.5063454724 
5.3387694699 7.1928467694 7.1940017887 5.4268360227 6.179827136 7.0817917387 1.8725374451 2.625790033 1.7704390851 
4.1775967867 4.285008113 1.5048882675 3.1912253877 4.1867519473 3.2085856848 5.1583219202 3.6311820902 0.16762423261 
-0.4441469999 -1.5271896851 0.40903036627 -0.608211107 -4.0279604015 -3.4729631684 -0.49276123418 -2.068356245 -3.7340885505 
-2.0285553624 -5.1329657992 -6.2540948648 -0.42846660152 -0.3312957868 -1.5191610638 0.75461097553 -1.7034325357 1.2524283952 
-0.11360876722 -0.96268517638 -3.1739949435 -3.9788077202 -1.8695576659 -3.0368934053 -2.2265626863 0.85459458869 1.0188906539 
3.3574251118 -2.4302238274 -1.0643269403 -1.5770522631 -6.9225058144 -0.17273087274 -0.8456745421 -1.0800273392 -0.31339109144 
2.6494923856 0.13086501259 1.1561594935 -1.7047195237 1.917683288 2.017792927 2.3786219268 0.069177026756 -1.4957305983 
0.32733870501 -0.1847159675 -4.172082947 -7.3379990381 -4.1257161956 -3.2259817208 -7.2006393445 -8.1046009065 -3.3120209798 
-6.7451245171 -8.2197038333 -7.0354005047 -5.2870200328 -2.1119286087 -7.0643384504 -7.7019569171 -6.4112624552 -7.5843150664 
-7.3697996557 -3.4573924805 -4.3066352747 -7.5569004316 -5.1172900687 -8.831545803 -6.1424735424 -8.4086591558 -8.3044820834 
-7.9571793588 -7.8477678096 -7.8742148509 -6.7415543191 -5.8844729313 -7.5701324419 -6.0892009138 -7.0287464669 -6.6697583079 
-6.2156772743 -6.2283749787 -9.5058044838 -7.6176894294 -7.4883317157 -7.709533175 -9.4945750675 -8.4962818734 -7.7396836966 
-8.4933137316 -8.6859678473 -8.4364279877 -8.3561889375 -7.8296898767 -8.7545736714 -8.7339438042 -7.4556781963 -9.501614879 
-8.1527595063 -7.7222198319 -8.9615362775 -8.9002439049 -8.0881641711 -9.5339523215 -8.7596518939 -8.8204692432 -9.3880880547 
-9.8459377672 -9.863985208 -9.4466630402 -9.7686135483 -9.2271914642 -9.6467530913 -9.8093611009 -9.4523423641 -9.5134983371 
-9.516015703 -9.5238707666 -8.637933526 -8.7060432809 -8.687012361 -6.7562877109 -5.3753512183 -9.1290909265 -1.8421228858 
-7.1481373422 -6.9627390161 -5.8116659387 -7.3886051282 -9.0165334511 -9.1984195017 -9.1912271282 -8.960795933 -8.7325891523 
-8.379949216 -8.7326872218 -8.0695308558 -7.2146649615 -7.0107586356 -8.9378259036 -4.1944610745 -3.4254934397 -8.1815117586 
-7.2937588927 -4.2110459004 -7.6216264688 -8.0582787073 -7.5566497821 -5.7673755564 -9.1121252962 -9.366444261 -9.0924293846 
-9.3808461249 -9.1969902531 -9.826791304 -9.4799825437 -9.7126811784 -9.8842657776 -9.3865935546 -9.8882131785 -9.8887135005 
-9.7657460949 -9.489410252 -9.8338097515 4.9896150969 2.6279917252 5.8005481839 3.4457108419 6.6471642736 4.7787273017 
4.2526724764 8.3826822618 6.7682096864 8.1723516604 4.5760280125 8.0919394026 2.4076830527 2.553695229 5.8272447636 
8.4503803008 6.3334983069 8.1998421878 7.5158117168 6.2396111776 6.7592122585 9.2160013297 9.140429314 7.6491994788 
7.8729392263 8.0877567176 8.7735571624 2.9434636917 8.9231901421 6.6517310245 8.41840596 5.9002852061 5.9907321998 
3.4407626002 9.3368277897 9.4368336067 8.4016254753 8.7221330185 9.0382022703 9.4108415099 9.6192131393 9.7506840644 
7.9161761152 9.6930680218 7.4848481936 8.5451028794 8.5426819997 8.4345277643 8.1128564672 7.3817568623 7.8883496343 
8.4980320719 8.991775791 9.7865442762 8.8667354723 9.3666015445 8.3795868458 9.1155021164 8.9469873093 9.4730248558 
9.5049721743 9.9894411004 9.2630400844 9.5518758941 9.727064563 8.5383984527 9.4951887471 9.6531001091 9.4154342715 
8.5866679353 8.6264100876 9.8486092494 8.1678641102 9.9468476138 9.9421519699 7.0359795318 5.8992419608 8.9990152096 
7.6584806252 7.9480526375 7.9852363129 9.4035644876 9.6978416285 9.0197643509 8.5159525826 8.9338423112 9.1036102797 
9.16809604 7.5639395323 9.1015649232 8.4040476971 7.9332363063 8.4138104451 9.8669819578 8.2383326703 8.327626525 
8.956789642 1.7971797476 6.3350228809 7.427775122 8.3159108143 7.9097511065 9.8263119889 8.4582994895 9.2117307845 
8.5058346439 9.635380506 8.552189017 9.8817444202 9.3045464183 9.6634192624 9.97371123 9.9053146284 9.7755331661 
9.774491006 9.5939890989 9.8300874765 9.6740901294 4.6946593081 9.0957360715 6.3864325675 4.6104804553 7.1248774271 
3.8194496707 8.3529159776 5.5048537677 2.7805180049 6.8650455695 7.022877927 6.326349228 6.7042386404 7.4620464427 
4.9449657741 -0.41160928513 -0.65270589155 0.92319057215 0.18005238726 -0.74157708741 2.0602882282 -2.4072955463 -3.3540114184 
-2.8255886731 -2.8259568094 -6.7937328771 -6.6007486406 -2.2379051963 -2.2379666582 -2.8217861278 -0.47094693204 -3.4148067545 
-0.093337075578 -3.1384945031 3.1973523944 4.899455916 -0.10238424336 0.42088235899 0.39663821887 0.5369334189 -1.339923646 
-4.5251955052 -4.775092412 -4.7617935061 -6.8092135356 -3.5339487497 -5.6850180743 -4.3441032216 -4.8189980084 -5.3994551436 
-2.713058135 -0.97252574419 -2.7110977662 -1.8435353382 -2.0617679732 -5.6098989965 -6.2946647127 -3.0309217642 -6.2900309947 
-5.8741691194 -1.3445513168 -2.4505627456 -2.6436548159 -2.6492633365 -1.101755687 -1.4749195661 -1.2612745741 -2.5734982861 
-4.5448038204 -3.7885778949 -4.3897671635 0.030401890621 1.7429752536 3.7889935061 2.5029123293 5.2983258835 6.3343544144 
2.7755404083 5.3210970452 7.2073677578 5.754804028 9.2525773066 5.8285994085 2.1081638031 4.0144019451 2.9623401819 
0.99003574267 4.5732957218 1.4090355376 1.8195252129 2.4242263164 5.8137598055 6.378968892 7.9957373732 4.8065411548 
5.7887105384 1.55752832 3.3152435959 -0.47200396475 4.7795745082 3.1575006323 4.3020724466 8.9272538227 2.2067497491 
2.8892313933 3.4246958479 4.0353417366 -1.2560325011 0.3026308018 -0.49206295371 3.1423099814 1.194271328 -0.36244208305 
1.1786313688 1.5906433393 2.7428526764 3.2069562674 2.1045274983 6.3382154518 9.4370379722 3.6227592533 1.3783244353 
5.6010966427 7.3814454396 5.3015826947 5.8319441767 9.3164960763 4.5063459301 9.4870817225 3.8397172289 9.1766638258 
9.2604201489 3.3657621177 1.9697385272 3.3141524317 2.10697728 -2.164663462 -1.0964347447 1.3463000149 -0.5218539574 
-2.538222168 -4.0271032626 -3.2007886526 -4.6098952681 -4.2599223895 -3.2386389519 -2.7700536159 -1.1105997942 -2.0059506271 
-0.55393890184 -3.6072711371 -0.86442382153 2.8642021423 5.9258597021 1.3578280739 -0.77673079113 1.324121397 2.462370574 
-1.716662078 -4.6689249693 -1.6217475852 -2.6228316207 -3.8486012821 -6.5118574872 -3.8626768414 -6.1668211923 -5.2576241762 
-4.2869516606 -0.64249849469 -3.2646995229 -4.5508766998 -1.8310991571 -1.334088498 -6.3983923457 -6.3156176101 -4.3977722879 
-3.8280097149 -5.8981007956 -0.33065185933 -1.9127859386 -0.95170097783 -3.1431851719 -1.8851410232 0.38037215751 -0.79756453541 
-3.3469927729 -2.7570003148 -3.6787704794 -2.4370441061 0.092754024197 1.1111054242 4.6566102779 2.7675605236 0.3598630787 
4.3429319095 4.2940188345 0.67010258203 4.3739481511 6.1925351622 -0.14370474248 -1.387960446 4.5972379443 4.5810066925 
4.5928996873 -0.069482710496 4.7566549811 0.0055672294217 2.615282001 2.81954262 4.2996471538 3.6312532095 8.5958261496 
5.6924749859 6.0628124581 5.1385912412 3.0074078241 -0.47439824308 4.2709095009 2.9629453613 3.3940782521 4.2874439102 
2.7410761545 4.0995956907 4.6707607084 3.9835993091 -1.7845999249 1.1457154948 -0.50790779003 3.576525906 1.2122955482 
-1.232682429 -0.24622239005 2.552713793 2.5620639319 2.7713512472 1.7660791578 
