# vtk DataFile Version 5.1
vtk output
ASCII
DATASET POLYDATA
POINTS 254 float
0.00455154 -5.39135 -1.57199 -2.87981 -5.99102 4.78062 -2.86006 10.4739 -2.76159 
-2.55718 10.535 11.5268 9.03381 -3.37269 -3.86327 8.47983 0.08815 11.2949 
12.0334 11.5651 -4.37713 12.7503 11.752 12.7396 -1.51859 -6.78418 2.06922 
-5.59833 -7.15855 6.9207 -10.7405 -0.753055 5.92662 -7.12019 -6.75104 3.27444 
-3.38444 -2.08064 -2.93271 -4.4819 1.36878 -4.77395 -5.02666 5.13381 -4.92201 
-4.14181 8.15979 -4.19536 -3.67323 10.812 0.199712 -4.33922 11.2157 2.35364 
-4.56652 11.7359 4.96822 -3.31415 11.0586 8.03592 -3.26123 -2.35936 6.60936 
-5.14481 1.81945 9.70791 -4.53342 6.00063 13.1079 -3.58363 8.35131 12.3491 
9.77908 -4.53586 -1.81333 10.2886 -4.22833 0.110227 3.90186 -15.0942 -1.50988 
10.3198 -4.10988 6.41941 11.6601 0.0845548 -4.76388 13.1174 3.07934 -6.5666 
13.8597 5.79279 -6.98848 13.2161 9.07441 -6.51672 12.7824 12.3335 -0.362479 
13.739 13.4766 3.18589 13.8574 14.2327 6.76753 13.6137 13.1295 10.0611 
10.3895 7.2611 14.9816 14.3306 3.38155 10.2768 14.3949 6.93306 11.4396 
13.4047 9.10107 12.7679 1.03962 -3.66061 -4.04134 2.35154 -4.74223 -3.20454 
5.31068 -4.79067 -4.33832 6.78175 -4.57279 -3.84089 0.405187 -7.1924 4.88897 
6.12043 -6.80474 8.23862 8.61625 -3.16881 12.8409 3.2337 2.61054 14.7243 
0.442121 11.3214 -4.44043 3.88477 12.5544 -5.54347 7.84321 13.273 -7.38418 
10.138 12.4751 -6.17002 0.803487 10.4788 13.5834 3.70003 11.1939 14.9914 
6.72902 11.9127 15.5432 9.83084 11.8328 14.547 -8.01659 3.72874 -0.711023 
-7.37434 4.57195 11.179 -6.21054 9.24553 6.35654 -7.04041 9.58572 0.878314 
-10.1169 3.26599 4.45191 -9.41145 -1.1569 3.40109 -4.82398 -3.79879 0.892418 
-8.71096 1.27937 8.08789 -6.05918 6.9746 11.0842 -7.51516 6.77595 8.55489 
-4.86615 8.88971 9.28531 -7.18778 1.78259 -1.72074 -8.59627 6.35606 0.222336 
-6.63133 6.68512 -2.44456 -5.91383 9.31462 -1.54762 -7.32518 9.8661 3.48967 
-9.37866 6.41435 2.47825 -10.2164 3.05691 2.12338 -8.22188 6.56509 5.34628 
-8.86697 4.24935 7.39774 -9.34498 0.907097 1.57024 -7.40362 -1.04248 -0.127522 
-3.16583 -4.12722 -0.204337 -4.59915 -4.40276 2.07032 -6.74792 -4.2404 4.51774 
-1.30438 -2.2012 14.615 -6.87016 -1.82639 5.84365 -2.0134 -3.61371 -9.66969 
-11.6832 2.61041 6.20366 -6.6713 -5.09251 3.88593 -3.36249 -11.3182 13.8259 
-9.50195 2.54999 5.51416 -10.7711 0.25185 3.76107 15.6291 5.19949 -3.15901 
16.0703 6.90429 7.68234 15.0485 12.3336 7.55075 14.4422 10.913 0.968771 
16.2335 6.28241 3.13375 14.7244 0.79332 0.0934558 14.9754 0.0609619 5.50106 
15.5945 4.44921 8.12672 14.8288 9.31656 10.1362 16.3025 9.8914 7.45614 
14.3956 11.701 10.5745 15.0752 2.87824 -3.99854 15.1823 7.88073 -0.711499 
14.5336 7.56024 -4.00749 13.4326 9.75459 -2.44214 14.7635 11.7942 4.7186 
15.4327 8.7948 2.29698 16.6114 5.51839 0.450517 16.0224 9.64348 5.54173 
17.1094 7.01871 5.18728 15.9899 3.12823 -1.55719 14.8565 0.65695 -3.17654 
12.1332 -1.62665 -2.81536 13.5753 -2.10902 -1.5412 12.8074 -3.37537 2.30408 
16.2704 3.89489 6.19616 13.7869 -0.269215 8.10997 13.0111 -3.7782 4.36508 
12.5505 -3.00318 6.04103 11.4602 -0.820922 9.39789 15.0965 0.361182 2.79695 
15.9259 3.68229 4.45299 15.8411 3.30348 1.81815 2.21031 -7.43769 0.865517 
7.56457 -9.56273 7.1807 -8.43777 -15.6416 14.1145 -2.95983 -9.12712 6.88862 
2.89914 -11.9371 6.86113 9.12926 -12.1051 7.48655 12.5673 -10.0158 0.159187 
10.5856 -7.20743 9.91103 2.80011 -8.94499 5.64396 5.4137 -11.7242 4.81144 
-1.6116 -8.96391 4.04873 4.10202 -6.55376 -0.946639 -1.36097 -7.76181 4.7129 
0.132369 -5.78666 -0.125254 -3.96663 9.04677 1.53988 -5.53349 -12.2128 11.0071 
-0.731227 -11.0301 6.86036 1.18805 -9.20852 4.57631 0.922738 -15.8358 10.8091 
9.07923 -13.398 4.1218 4.83226 -8.99538 1.6654 6.34 -7.79457 -0.888318 
7.85885 -5.51889 -1.34563 9.85763 -9.06288 3.48812 16.35 5.90729 -3.52752 
12.6883 -14.0118 4.80558 28.9507 -9.40199 11.2163 -30.8087 2.79444 -5.10382 
7.81759 -5.02131 6.47965 6.46168 -2.43769 9.17198 3.31328 1.28397 -2.53471 
10.7554 -11.3165 1.43169 3.9196 -10.2346 4.68099 3.85877 13.7747 -1.46901 
4.45962 12.7287 11.9434 -1.33331 12.7408 6.98513 -1.35666 12.3762 1.55161 
3.95408 15.022 5.18043 9.80061 15.5607 1.91181 9.52461 14.3464 9.0573 
5.99927 12.7615 13.3813 2.12513 12.0307 12.3165 1.78384 13.2733 9.46804 
-0.436111 11.5186 10.2712 6.33705 13.9558 -3.62043 1.07518 13.9647 0.286923 
1.55214 12.696 -2.68772 -1.18034 11.7128 -1.53594 -1.66138 12.6929 4.0691 
0.78694 14.1346 2.97194 3.92078 14.6037 1.90008 1.38529 14.2016 6.16474 
4.05549 14.7691 8.46891 6.85431 14.9158 0.161573 9.02993 14.7513 -2.72717 
11.419 13.2651 -2.63707 11.9131 14.6321 0.655895 12.4399 15.0681 4.07947 
6.69815 14.2895 10.8518 8.55196 13.8141 12.8618 11.4322 14.4883 7.08466 
11.8228 13.6509 9.63 11.0914 13.2269 12.2652 9.49899 15.3725 5.55022 
6.75971 15.2567 7.7055 6.87984 15.893 4.168 -0.841331 2.48938 -7.73765 
10.5554 3.44586 -8.74148 7.02972 -2.19313 -6.41147 2.94225 -1.58286 -6.46257 
5.07095 3.89112 -9.77392 2.24301 8.60465 -9.54482 9.00223 8.92105 -10.464 
11.7763 5.58063 -9.25589 10.8694 0.969246 -7.10117 8.94058 0.748919 -8.07969 
9.15849 -2.21632 -6.27799 -2.14926 5.11227 -6.91623 1.15348 0.298955 -7.53813 
-1.71243 -0.151191 -5.49754 -0.134772 -2.46286 -4.74766 5.16875 -2.06342 -6.80744 
3.83364 0.915413 -8.30632 2.29572 3.31349 -9.14149 6.3882 1.43987 -8.35953 
8.29395 3.48193 -9.62785 0.477106 5.71491 -8.97369 -1.34559 7.77364 -7.09355 
-1.47348 9.54708 -5.84022 1.60411 10.3972 -7.79632 4.75337 11.1734 -8.95439 
10.0687 6.4545 -10.1539 11.681 8.31878 -9.39164 7.59666 10.9614 -9.89848 
9.46353 10.7513 -9.54375 11.0524 10.2424 -7.58914 5.79805 8.69219 -10.6407 
7.03039 6.29637 -10.544 3.68611 6.63429 -10.1365 -0.396718 2.02442 10.8213 
13.5653 -2.1462 5.55602 -6.00169 4.19649 13.4674 1.87552 -6.10558 6.36245 
5.80265 -0.184491 12.2202 1.86324 7.2795 15.2172 9.00139 6.14958 14.554 
12.829 3.67356 12.0228 9.94523 2.78219 10.8639 6.66871 1.6352 10.6296 
5.52951 9.45199 18.0603 -2.1507 4.41351 12.3632 1.26411 -1.08233 10.004 
-1.45787 -0.873501 9.02036 -0.421942 -4.46393 6.32806 1.00694 -1.0976 6.0457 
3.67641 -0.297793 11.4615 2.82858 1.89672 12.2848 7.33893 -5.80467 5.14777 
11.8593 -6.94273 2.50531 0.761179 4.81032 13.7053 -1.54543 6.7218 14.103 
-0.65559 8.95721 13.3729 1.52001 9.00765 15.0209 4.01191 9.98653 15.6913 
10.5001 2.8759 13.0768 11.7011 7.28703 13.5723 6.92075 9.21626 15.5796 
9.42815 9.28924 14.9188 11.5408 9.86188 13.7763 5.45948 6.41704 15.3628 
8.36974 2.00701 13.7967 4.44845 3.84187 14.0723 
POLYGONS 505 1512
OFFSETS vtktypeint64
0 3 6 9 12 15 18 21 24 
27 30 33 36 39 42 45 48 51 
54 57 60 63 66 69 72 75 78 
81 84 87 90 93 96 99 102 105 
108 111 114 117 120 123 126 129 132 
135 138 141 144 147 150 153 156 159 
162 165 168 171 174 177 180 183 186 
189 192 195 198 201 204 207 210 213 
216 219 222 225 228 231 234 237 240 
243 246 249 252 255 258 261 264 267 
270 273 276 279 282 285 288 291 294 
297 300 303 306 309 312 315 318 321 
324 327 330 333 336 339 342 345 348 
351 354 357 360 363 366 369 372 375 
378 381 384 387 390 393 396 399 402 
405 408 411 414 417 420 423 426 429 
432 435 438 441 444 447 450 453 456 
459 462 465 468 471 474 477 480 483 
486 489 492 495 498 501 504 507 510 
513 516 519 522 525 528 531 534 537 
540 543 546 549 552 555 558 561 564 
567 570 573 576 579 582 585 588 591 
594 597 600 603 606 609 612 615 618 
621 624 627 630 633 636 639 642 645 
648 651 654 657 660 663 666 669 672 
675 678 681 684 687 690 693 696 699 
702 705 708 711 714 717 720 723 726 
729 732 735 738 741 744 747 750 753 
756 759 762 765 768 771 774 777 780 
783 786 789 792 795 798 801 804 807 
810 813 816 819 822 825 828 831 834 
837 840 843 846 849 852 855 858 861 
864 867 870 873 876 879 882 885 888 
891 894 897 900 903 906 909 912 915 
918 921 924 927 930 933 936 939 942 
945 948 951 954 957 960 963 966 969 
972 975 978 981 984 987 990 993 996 
999 1002 1005 1008 1011 1014 1017 1020 1023 
1026 1029 1032 1035 1038 1041 1044 1047 1050 
1053 1056 1059 1062 1065 1068 1071 1074 1077 
1080 1083 1086 1089 1092 1095 1098 1101 1104 
1107 1110 1113 1116 1119 1122 1125 1128 1131 
1134 1137 1140 1143 1146 1149 1152 1155 1158 
1161 1164 1167 1170 1173 1176 1179 1182 1185 
1188 1191 1194 1197 1200 1203 1206 1209 1212 
1215 1218 1221 1224 1227 1230 1233 1236 1239 
1242 1245 1248 1251 1254 1257 1260 1263 1266 
1269 1272 1275 1278 1281 1284 1287 1290 1293 
1296 1299 1302 1305 1308 1311 1314 1317 1320 
1323 1326 1329 1332 1335 1338 1341 1344 1347 
1350 1353 1356 1359 1362 1365 1368 1371 1374 
1377 1380 1383 1386 1389 1392 1395 1398 1401 
1404 1407 1410 1413 1416 1419 1422 1425 1428 
1431 1434 1437 1440 1443 1446 1449 1452 1455 
1458 1461 1464 1467 1470 1473 1476 1479 1482 
1485 1488 1491 1494 1497 1500 1503 1506 1509 
1512 
CONNECTIVITY vtktypeint64
20 21 82 22 63 21 65 57 64 
58 65 66 64 66 65 23 3 66 
19 18 58 3 19 66 66 19 58 
22 23 64 64 23 66 63 22 57 
57 22 64 67 13 77 14 13 67 
69 56 68 70 68 59 69 70 15 
68 70 69 16 2 70 70 59 16 
17 16 59 2 15 70 15 14 69 
56 14 67 69 14 56 71 17 59 
58 18 71 71 18 17 72 59 68 
73 68 56 60 72 73 68 73 72 
65 58 74 75 74 60 57 65 75 
74 75 65 72 60 74 71 74 58 
59 72 71 74 71 72 76 56 67 
61 76 77 67 77 76 13 12 77 
12 0 78 80 61 79 79 9 80 
8 78 0 9 79 8 78 8 79 
77 79 61 78 77 12 79 77 78 
63 57 81 82 81 62 63 82 21 
81 82 63 84 62 83 10 84 83 
80 10 83 84 10 11 1 20 85 
85 20 82 11 85 84 85 11 1 
62 84 82 85 82 84 10 80 9 
86 83 62 61 80 86 83 86 80 
87 62 81 75 81 57 60 87 75 
81 75 87 76 61 88 73 88 60 
56 76 73 88 73 76 87 60 88 
86 88 61 62 87 86 88 86 87 
36 115 37 38 37 96 98 97 90 
91 99 98 97 98 99 39 99 7 
35 91 34 7 99 35 99 91 35 
38 97 39 97 99 39 96 90 38 
90 97 38 100 110 29 30 100 29 
102 101 89 103 92 101 102 31 103 
101 102 103 32 103 6 103 32 92 
33 92 32 6 103 31 31 102 30 
89 100 30 102 89 30 104 92 33 
91 104 34 104 33 34 105 101 92 
106 89 101 93 106 105 101 105 106 
98 107 91 108 93 107 90 108 98 
107 98 108 105 107 93 104 91 107 
92 104 105 107 105 104 109 100 89 
94 110 109 100 109 110 29 110 28 
28 111 4 113 112 94 112 113 25 
24 4 111 25 24 112 111 112 24 
110 94 112 111 28 110 112 111 110 
96 114 90 115 95 114 96 37 115 
114 96 115 117 116 95 26 116 117 
113 116 26 117 27 26 5 118 36 
118 115 36 27 117 118 118 5 27 
95 115 117 118 117 115 26 25 113 
119 95 116 94 119 113 116 113 119 
120 114 95 108 90 114 93 108 120 
114 120 108 109 121 94 106 93 121 
89 106 109 121 109 106 120 121 93 
119 94 121 95 119 120 121 120 119 
47 46 148 45 129 46 131 123 130 
124 131 132 130 132 131 44 1 132 
11 10 124 1 11 132 132 11 124 
45 44 130 130 44 132 129 45 123 
123 45 130 133 42 143 41 42 133 
135 122 134 136 134 125 135 136 40 
134 136 135 8 0 136 136 125 8 
9 8 125 0 40 136 40 41 135 
122 41 133 135 41 122 137 9 125 
124 10 137 137 10 9 138 125 134 
139 134 122 126 138 139 134 139 138 
131 124 140 141 140 126 123 131 141 
140 141 131 138 126 140 137 140 124 
125 138 137 140 137 138 142 122 133 
127 142 143 133 143 142 42 43 143 
43 4 144 146 127 145 145 25 146 
24 144 4 25 145 24 144 24 145 
143 145 127 144 143 43 145 143 144 
129 123 147 148 147 128 129 148 46 
147 148 129 150 128 149 26 150 149 
146 26 149 150 26 27 5 47 151 
151 47 148 151 27 5 27 151 150 
128 150 148 151 148 150 26 146 25 
152 149 128 127 146 152 149 152 146 
153 128 147 141 147 123 126 153 141 
147 141 153 142 127 154 139 154 126 
122 142 139 154 139 142 153 126 154 
152 154 127 128 153 152 154 152 153 
55 181 54 53 54 162 164 163 156 
157 165 164 163 164 165 52 165 3 
19 157 18 3 165 19 165 157 19 
53 163 52 163 165 52 162 156 53 
156 163 53 166 176 50 49 166 50 
168 167 155 169 158 167 168 48 169 
167 168 169 16 169 2 169 16 158 
17 158 16 2 169 48 48 168 49 
155 166 49 168 155 49 170 158 17 
157 170 18 170 17 18 171 167 158 
172 155 167 159 172 171 167 171 172 
164 173 157 174 159 173 156 174 164 
173 164 174 171 173 159 170 157 173 
158 170 171 173 171 170 175 166 155 
160 176 175 166 175 176 50 176 51 
51 177 6 179 178 160 178 179 33 
32 6 177 33 32 178 177 178 32 
176 160 178 177 51 176 178 177 176 
162 180 156 181 161 180 162 54 181 
180 162 181 183 182 161 34 182 183 
179 182 34 183 35 34 7 184 55 
184 181 55 184 7 35 35 183 184 
161 181 183 184 183 181 34 33 179 
185 161 182 160 185 179 182 179 185 
186 180 161 174 156 180 159 174 186 
180 186 174 175 187 160 172 159 187 
155 172 175 187 175 172 186 187 159 
185 160 187 161 185 186 187 186 185 
31 30 214 29 195 30 197 189 196 
190 197 198 196 198 197 28 4 198 
43 42 190 4 43 198 198 43 190 
29 28 196 196 28 198 195 29 189 
189 29 196 199 14 209 13 14 199 
201 188 200 202 200 191 201 202 12 
200 202 201 40 0 202 202 191 40 
41 40 191 0 12 202 12 13 201 
188 13 199 201 13 188 203 41 191 
190 42 203 203 42 41 204 191 200 
205 200 188 192 204 205 200 205 204 
197 190 206 207 206 192 189 197 207 
206 207 197 204 192 206 203 206 190 
191 204 203 206 203 204 208 188 199 
193 208 209 199 209 208 14 15 209 
15 2 210 212 193 211 211 49 212 
48 210 2 49 211 48 210 48 211 
209 211 193 210 209 15 211 209 210 
195 189 213 214 213 194 195 214 30 
213 214 195 216 194 215 50 216 215 
212 50 215 216 50 51 6 31 217 
217 31 214 217 51 6 51 217 216 
194 216 214 217 214 216 50 212 49 
218 215 194 193 212 218 215 218 212 
219 194 213 207 213 189 192 219 207 
213 207 219 208 193 220 205 220 192 
188 208 205 220 205 208 219 192 220 
218 220 193 194 219 218 220 218 219 
39 247 38 37 38 228 230 229 222 
223 231 230 229 230 231 36 231 5 
47 223 46 5 231 47 231 223 47 
37 229 36 229 231 36 228 222 37 
222 229 37 232 242 22 21 232 22 
234 233 221 235 224 233 234 20 235 
233 234 235 44 235 1 235 44 224 
45 224 44 1 235 20 20 234 21 
221 232 21 234 221 21 236 224 45 
223 236 46 236 45 46 237 233 224 
238 221 233 225 238 237 233 237 238 
230 239 223 240 225 239 222 240 230 
239 230 240 237 239 225 236 223 239 
224 236 237 239 237 236 241 232 221 
226 242 241 232 241 242 22 242 23 
23 243 3 245 244 226 244 245 53 
52 3 243 53 52 244 243 244 52 
242 226 244 243 23 242 244 243 242 
228 246 222 247 227 246 228 38 247 
246 228 247 249 248 227 54 248 249 
245 248 54 249 55 54 7 250 39 
250 247 39 250 7 55 55 249 250 
227 247 249 250 249 247 54 53 245 
251 227 248 226 251 245 248 245 251 
252 246 227 240 222 246 225 240 252 
246 252 240 241 253 226 238 225 253 
221 238 241 253 241 238 252 253 225 
251 226 253 227 251 252 253 252 251 

CELL_DATA 504
SCALARS scalars double
LOOKUP_TABLE default
-6.467142635 -5.8607041865 4.4860772954 6.7145377374 6.97349789 5.0957532333 6.5023298416 6.5508048379 6.7252841931 
4.5418577539 7.169966785 -6.277660899 3.780487879 -2.8930401364 -1.3404573871 0.3176273348 4.6188317189 3.9655562716 
3.8486110711 8.8122641739 8.8455856443 8.8176620108 6.3860574485 3.5273369436 -0.39615914945 0.53405398752 8.8007842042 
6.4913909391 8.579595454 4.6281088823 0.40328363883 2.4005718804 2.6109504715 5.5892156002 4.3954639906 3.2739153335 
4.0250230206 4.0369313729 4.4535978399 5.3734742343 4.1257705816 -0.62341137896 -3.8722082871 -2.663964195 -5.2006023705 
-7.1259081139 -6.6917761368 -6.358668055 -7.2123629239 -6.856392891 -7.1282028846 -7.2512536892 -7.0265452249 -7.2750123842 
3.1039257432 9.0256218158 -6.5539718982 6.5973684597 6.2770753953 -2.0675957407 -6.8037369668 1.5167070354 -4.5367494374 
-5.0895248819 -3.2852822371 -2.6433234509 7.3568917841 -4.9012531207 -6.079849443 5.4367848692 -6.8357858026 -6.735427701 
-6.8688874324 -5.1946376191 -1.3724899761 -3.0916499897 -4.8798758684 2.0697154885 -1.4807457738 -1.7665076924 0.61746989075 
-6.5049049691 4.8985213035 -0.039770036921 -5.1069233569 -1.6003227468 -0.32235595524 4.3062595607 0.67333315621 1.9946364221 
5.868291838 5.4720652487 5.3689257596 1.0382464956 0.70866831581 -1.0256877222 0.56111193582 -2.9355631784 -2.9691538898 
3.4705679016 4.1454970504 5.1785200902 5.5499963362 4.168955484 5.1342208375 5.3310625235 5.1479643327 2.2789310923 
-0.61117881023 2.7997962125 3.9480717747 4.6970844592 4.3351688521 3.243235985 3.9578348699 3.164801917 4.312296651 
4.5449782712 3.9057660245 -0.42784568816 3.9714410912 2.2484705276 4.4721772049 3.3504176589 4.0924857806 -1.0013678589 
-4.4562966985 -2.106980784 -6.1036787582 -5.6785948759 -3.9357313332 -8.6594793842 -6.3036888824 -8.422580911 -5.8077909904 
-3.9348383163 -6.2163541328 -5.9735428526 -1.1492020906 -3.560957322 -3.3653940709 -3.2988795851 -5.0879576619 -6.8855319035 
-5.5457234249 -6.8019196058 -5.002801915 -4.4112910972 -6.821660117 -6.9568824268 -5.6431995429 -6.571572849 -3.0171085541 
-4.5302633094 -4.9342736495 -4.9630048815 -2.9163645067 -1.2492365999 -2.6005514644 -3.0118667798 -4.4112180606 -2.1239266816 
-0.32775741259 -2.9614596612 -1.2448991394 -2.9626865961 -2.496048366 -2.4412163121 -3.3188568698 -6.5329238095 -5.360117597 
7.373224818 -5.142389549 -2.9185875707 3.4504295296 -3.3449665969 7.4343960031 -2.8306719058 -0.59109877225 -4.8798402974 
-4.8221244099 -7.4692532375 -8.3538708811 -7.9107098929 -2.3549509969 -2.1674012484 -2.0958402178 1.5198203414 1.5454143369 
-6.9397843872 1.4028478945 -7.9494858307 -8.2297633712 -7.7097965909 -5.6988342416 -4.9518551773 -5.3377257914 -5.4541552838 
-7.5038957156 -6.9388693178 -5.599521079 7.0082095458 -5.1499767742 -6.5322304196 5.8773092536 -6.5939184691 -4.8887113122 
-5.4000035346 -6.6094045768 -7.412025055 -8.9407718425 -7.2507714823 -6.6261285505 -7.7955719076 -4.666368759 -5.3338491171 
-7.9129644038 -2.3395386355 -7.3950664053 -7.7098979903 -5.4843035949 -5.1723980251 -6.2641171374 -6.7983715778 -6.228113685 
-6.2036038266 8.4522837367 -4.9971261136 -1.1963389945 -6.5992902036 -6.9585822892 7.8603603088 -7.1205236457 -6.333942479 
8.4423256986 7.5927615953 -5.0857713434 1.7999071676 5.5563573224 3.544071924 -7.5438586769 -6.619407181 -5.5385901837 
-7.8578385878 -9.0772591073 -7.0732959497 -8.1092516192 -8.4650858532 -6.1164351115 5.0215230664 -4.3702696718 -4.9417877095 
7.1259061475 8.5685883375 8.8906396994 7.8029652625 7.840861568 9.0871418361 7.9562765808 9.2859363812 7.8997012033 
7.6150351482 7.6236424335 8.6961122419 8.9391848795 9.4784031685 9.112955361 8.8957527103 7.6944729304 8.1928948556 
7.8944193472 8.5538494648 8.6281132941 8.630831244 8.5839428209 8.243863165 9.1167340695 9.1824513855 9.0423668335 
9.5134994609 9.0679410503 8.0372787487 9.6802221456 9.7456755309 9.8132616415 8.7638307331 9.5806282774 8.048326485 
8.527547745 9.5579158017 8.8495725445 8.1409010127 8.7323279186 9.4647670652 9.8066370965 9.5392630411 7.966985058 
6.3571308399 9.3534841043 6.8363844649 5.4771948838 4.6694141246 4.5431456062 9.34890682 7.8664400756 7.7316986042 
8.3255422952 9.840816844 8.6244993325 8.5631173712 9.3702211404 9.469412596 9.6418698841 9.2629952027 6.6131351141 
7.243150658 7.0721926128 9.5030808643 9.5126105431 9.3626324536 6.7799664889 9.3826858964 9.8909712556 9.3966505938 
9.4153125143 8.0289280489 9.8465711687 9.5250386761 9.6910620024 9.401346458 9.4467958324 9.4440210319 9.5947154181 
9.8473289589 9.4503230477 9.7869571042 2.354459563 -2.9441030446 -4.550918109 -5.1609032047 -4.4070333778 -6.2612117949 
-7.1093882669 -8.2112041106 -7.3505074201 -5.9503339731 -5.1036033548 -4.7275769667 -4.088743347 1.1625419035 -1.1405875982 
-4.8341513358 -6.3737693627 -5.4118166199 -5.3205981524 -7.0004937775 -6.4724351842 -7.0006317227 -6.7689904534 -5.2725223642 
-0.63006099571 -4.816319489 -6.7126515028 -6.6381518083 -6.5218996265 -5.6626882294 -3.558184702 -3.9668832488 -4.1516262195 
-4.7679748046 -5.0996650863 -4.0569696414 -4.9969967468 -4.6671773094 -4.4512010811 -5.1986370972 -4.2387502485 -0.55063775928 
2.0134898646 1.3944865195 3.5181316398 6.321084733 5.6089291696 8.286016158 7.969839698 8.2933059066 8.00359177 
4.5982984856 4.202878294 4.4892228155 -3.7149980216 0.48470825282 -0.078673502911 -0.28347322696 3.9516640305 7.0985419829 
7.341434804 7.2565672147 6.6961775283 6.4657756575 5.6683309787 5.621087196 3.2369739398 6.0266912868 8.339653649 
2.875366438 4.6000087481 4.7187606406 -0.67912132524 -3.5511714482 -3.0788453347 -2.5087292389 0.27038132214 -2.1497609792 
-2.0471829794 -1.5832378234 -1.9805294604 0.69745279659 -0.11563912425 -1.0712776805 -2.0834999385 -2.2795290993 6.5768369923 
6.8695781227 6.6372627917 -4.9761278864 -4.6502183545 -4.9689561352 -3.7865037816 6.7478587733 6.7711035404 -5.7852125524 
6.5278494358 -5.7476018308 -6.0816568439 -4.0431290605 -5.6649625687 -6.214938459 -6.2606515256 -5.0548297133 -5.1909516813 
-4.7812603549 -4.5616251945 -6.5473806335 -6.1355112271 -4.6999612292 -0.12613272031 -8.7552257134 -3.5579130036 -5.8641636573 
-4.2294401951 -4.3076833321 -4.450385586 5.8845994232 -7.4998994449 5.8144114954 5.4386220962 -7.8920692475 8.0321134789 
1.2439761282 -7.6995266713 -6.4629038985 -4.3913134646 -5.2402030152 4.1883499381 4.761768331 0.53537514328 3.8895756083 
3.5336751088 4.8481243862 4.2993342322 0.4468811612 4.1946963536 4.4850146571 -6.1958449233 -2.116209877 -1.4866557256 
-2.226916135 -1.458368516 0.31094346182 0.16516501824 0.89963034574 1.3587447128 -0.41374822881 1.2599959086 0.55962420523 
-1.5889391161 -0.39157478249 4.3309371305 -1.8190720456 -1.189737884 -0.85316596673 -2.2297063114 -5.7968941266 -7.2864143121 
-6.1762755552 -4.4366095998 -4.8265166425 -5.9943696284 -5.5122080776 -4.5458004985 -4.0179697412 -2.0595835007 -4.0460054582 

