# vtk DataFile Version 5.1
vtk output
ASCII
DATASET POLYDATA
POINTS 1244 float
0 0 0 0.00172122 -0.00103537 9.90387 -0.0620009 9.84657 -0.128779 
-0.054864 9.99737 10.3223 9.83548 -0.0100769 0.00290471 9.77365 -0.0116467 9.82103 
9.9371 9.80172 -0.164706 9.9326 9.86257 10.1168 0 0 1 
0 0 2 0 0 3 0 0 4 
0 0 5 0 0 6 0 0 7 
0 0 8 0 0 9 0 1 0 
0 2 0 0 3 0 0 4 0 
0 5 0 0 6 0 -0.0114923 6.99981 -0.0198322 
-0.0360408 7.99869 -0.0422566 -0.0482748 9.00115 -0.0700657 -0.488204 9.77868 1.07111 
-0.125348 9.85379 1.93374 -0.204091 9.78723 3.04161 -0.0654859 9.82041 4.02192 
-0.183147 9.82146 4.97415 -0.104504 9.80757 6.05381 -0.187898 9.8219 7.00556 
-0.218381 9.79153 7.80805 -0.316486 9.93979 8.95856 -0.0214794 0.99198 9.87472 
-0.0843035 2.00414 9.88253 -0.0854652 2.99682 9.8744 -0.0812762 4.00025 9.87474 
-0.0869339 4.99696 9.88279 -0.0860413 6.0043 9.8854 -0.096028 6.99988 9.91062 
-0.125727 7.998 9.9277 -0.130425 8.99046 9.92553 9.85459 -0.00370655 1.00742 
9.88304 -0.00436189 2.01312 10 0 3 10 0 4 
10 0 5 10 0 6 10 0 7 
10 0 8 9.97929 -0.00181954 8.99725 9.86168 0.995916 -0.0594544 
9.8816 1.99431 -0.0795375 9.87731 2.99449 -0.0907819 9.85723 4.00063 -0.130216 
9.88575 4.99808 -0.126758 9.89334 6.00535 -0.141168 9.90696 7.00052 -0.144193 
9.9044 8.00096 -0.174813 9.91598 9.00589 -0.16327 10.0995 9.84608 1.00456 
9.88138 9.86386 1.98792 9.97013 9.88145 3.0014 9.8899 9.87081 3.973 
9.88112 9.8469 4.95858 10.0843 9.92636 5.99755 10.0026 9.93015 7.00403 
9.93218 9.91543 8.07408 10.0439 10.2038 8.89985 9.84828 0.986852 9.85213 
9.88441 2.0022 9.89433 9.89731 2.99341 9.90159 9.88221 4.00825 9.90144 
9.86493 4.99765 9.87604 9.87294 6.00472 9.89888 9.88836 6.99463 9.91922 
9.90097 8.0159 9.93845 9.90254 8.99505 10.0482 1 0 0 
2 0 0 3 0 0 4 0 0 
5 0 0 6 0 0 7 0 0 
8 0 0 9 0 0 1.00602 -0.00678728 9.85362 
2 0 10 3 0 10 4 0 10 
5 0 10 6 0 10 7 0 10 
8 0 10 8.98117 -0.00258981 9.89589 0.974406 10.0184 -0.0955705 
2.129 10.1571 -0.505082 2.99381 9.91599 -0.061622 4.19179 9.74208 -0.147181 
4.7603 9.72561 -0.0934987 5.81887 9.79661 -0.146244 7.00059 9.90328 -0.186893 
8.06201 9.76238 -0.372018 8.94121 10.076 -0.171931 0.776848 9.68831 9.80005 
1.69248 9.8514 10.1352 3.02162 9.91456 10.0508 4.13358 10.1157 11.1845 
4.81683 9.57397 10.1603 5.77221 9.82791 9.9615 7.01974 9.89173 9.90271 
8.15658 9.77694 10.1293 8.83979 9.40844 9.74566 0 0.303848 5 
0 0.303848 1.91229 0 5.65192 1.91229 -0.047338 8.3261 3.45107 
-0.0449255 8.32546 0.367988 -0.15629 5.65381 8.08977 -0.146318 8.32795 9.61759 
-0.130889 8.32672 6.54874 0 0.303848 8.08771 -0.0746573 2.97675 9.63275 
0 2.97789 0.36843 -0.0447399 5.65181 4.99743 0 2.97789 3.45614 
0 2.97789 6.54386 0 0.303848 9.63157 0 0.303848 6.54386 
0 0.303848 3.45614 0 0.303848 0.36843 -0.0822714 4.31687 8.85741 
-0.106516 5.6539 9.63333 -0.141662 6.99025 8.86363 -0.161126 6.9917 7.32024 
-0.182675 8.32977 8.09266 -0.165681 9.66549 8.86002 -0.191192 9.64465 7.30659 
-0.0666897 9.66601 5.77139 0 4.3149 1.14036 0 5.65192 0.36843 
-0.0367368 6.98871 2.68363 -0.0648539 6.98946 1.13895 -0.0558897 8.32601 1.90857 
-0.0596936 9.66414 4.22784 -0.130341 9.66566 2.68006 -0.161301 9.67305 1.14608 
-0.0476326 8.32424 4.9912 -0.00014168 6.98831 4.22752 0 5.65192 3.45614 
-0.0580572 6.98788 5.76687 -0.127772 5.65509 6.54327 0 4.3149 2.68422 
0 2.97789 1.91229 0 1.64087 1.14036 0 1.64087 2.68422 
0 1.64087 4.22807 -0.0697745 4.31531 7.31151 -0.0411043 2.97898 8.08582 
0 1.64087 5.77193 0 1.64087 7.31578 -0.00822685 1.63914 8.8594 
0 2.97789 5 -0.046005 4.31641 5.77068 0 4.3149 4.22807 
0 0.303848 8.85964 0 0.303848 7.31578 0 0.303848 5.77193 
0 0.303848 4.22807 0 0.303848 2.68422 0 0.303848 1.14036 
-0.0725541 3.644 9.24998 -0.0669878 4.31556 9.62816 -0.0839741 4.98268 9.24451 
-0.0862178 4.9834 8.47677 -0.103524 5.65238 8.85909 -0.162394 6.31967 8.47461 
-0.105011 6.32067 7.69579 -0.145587 6.99045 8.0809 -0.134178 7.65678 9.25872 
-0.151425 7.66058 8.46655 -0.178184 8.32548 8.861 -0.182583 7.65861 7.69631 
-0.124382 7.65859 6.93381 -0.15629 8.32789 7.3039 -0.153908 8.99345 9.24594 
-0.189046 9.65504 9.62857 -0.119629 8.99605 6.92242 -0.106529 8.98069 6.18217 
-0.150302 9.64116 6.53769 -0.165813 9.60572 8.08997 -0.156565 8.99578 7.70266 
-0.158724 8.99719 8.47616 -0.0986768 6.98708 9.63697 -0.108139 6.3182 9.23887 
0 3.6464 0.754394 0 4.3149 0.36843 0 4.98341 1.52632 
0 4.98341 0.754394 0 5.65192 1.14036 -0.0448709 6.32043 2.29825 
-0.0435692 6.32023 1.52517 -0.0643915 6.98839 1.91047 -0.0334082 7.65639 3.06798 
-0.0649592 7.65327 2.29816 -0.0628807 8.32642 2.681 -0.0600499 7.65643 1.52313 
-0.0770661 7.6549 0.76309 -0.0937654 8.32271 1.136 -0.0962979 8.99536 3.84205 
-0.0816748 8.99477 3.07072 -0.0925562 9.66553 3.45763 -0.119449 8.99663 0.749205 
-0.108211 9.66402 0.367186 -0.038679 9.65233 1.86131 -0.0755373 8.97416 1.50204 
-0.0780145 8.98419 2.31854 -0.0209886 6.98795 0.371645 -0.0454098 6.32037 0.755892 
-0.104048 9.66769 5.00117 -0.0520772 8.99417 4.6186 -0.0631423 8.32556 4.22476 
-0.085655 8.98126 5.35287 -0.101913 8.32016 5.76421 0.00762917 7.65349 3.83332 
-0.0386784 6.98769 3.44916 -0.029914 6.32043 3.07018 0 5.65192 2.68422 
-0.0598279 6.32043 3.84211 0 6.32043 4.61404 0 5.65192 4.22807 
-0.111745 7.65151 6.15565 -0.1548 6.99286 6.53973 -0.044454 6.32195 5.38177 
-0.102666 6.31819 6.15108 -0.0588622 5.65027 5.76686 -0.144884 6.32136 6.94029 
-0.109457 5.65176 7.3136 -0.0461699 6.98961 4.99812 -0.0360214 7.65665 5.37247 
-0.0793822 7.65861 4.60857 0 4.98341 2.29825 0 4.3149 1.91229 
0 3.6464 1.52632 0 2.97789 1.14036 0 3.6464 2.29825 
0 3.6464 3.07018 0 2.97789 2.68422 0 2.30938 0.754394 
0 1.64087 0.36843 0 0.972357 0.754394 0 0.972357 1.52632 
0 2.30938 3.07018 0 2.30938 3.84211 0 1.64087 3.45614 
0 0.972357 2.29825 0 0.972357 3.07018 0 0.972357 3.84211 
0 0.972357 4.61404 0 1.64087 1.91229 0 2.30938 2.29825 
0 2.30938 1.52632 -0.126939 4.98309 7.70476 -0.108951 4.31803 8.08088 
-0.0207676 3.64571 6.92704 -0.0454985 3.64583 7.69871 -0.0144907 2.97801 7.3154 
-0.08556 3.64533 8.46369 -0.0592766 2.97946 8.85294 0 2.30938 6.15789 
-0.029881 2.3089 6.93123 0 1.64087 6.54386 0 0.972357 5.38596 
0 0.972357 6.15789 0 0.972357 6.92982 -0.0448709 0.972357 7.70175 
-0.044238 2.30955 9.24311 -0.0453329 1.64207 9.63317 -0.0153341 0.970451 8.47731 
-0.0200016 0.971907 9.24819 -0.0467234 1.6408 8.08438 -0.032096 2.30813 8.47914 
-0.0715793 2.31049 7.70316 0 1.64087 5 0 2.30938 5.38596 
0 2.97789 5.77193 0 2.30938 4.61404 0 2.97789 4.22807 
-0.0448709 3.6464 6.15789 -0.0578636 4.31612 6.54178 -0.0864023 4.98483 6.92457 
-0.0975427 4.98473 6.15764 -0.0250138 4.98262 5.38182 0 3.6464 3.84211 
0 4.3149 3.45614 -0.00754254 4.98245 4.61395 0 4.98341 3.84211 
0 4.98341 3.07018 0 4.3149 5 0 3.6464 4.61404 
-0.0448709 3.6464 5.38596 10 0.303848 5 9.91739 0.318922 1.9033 
9.88648 5.65087 1.91189 9.90354 8.32884 3.45761 9.94175 8.32825 0.367612 
9.84578 5.65429 8.08504 9.91791 8.32682 9.62561 9.97497 8.33228 6.54243 
10.0353 0.336007 8.09507 9.86528 2.97639 9.63527 9.87054 2.98139 0.362942 
9.85186 5.65353 5.04177 9.89845 2.97829 3.45654 9.92318 2.97384 6.54247 
9.85198 0.297134 9.62425 10 0.303848 6.54386 10 0.303848 3.45614 
9.82859 0.30003 0.372832 9.82902 4.32407 8.86094 9.86415 5.65831 9.62909 
9.8805 6.99276 8.85739 9.87966 6.99457 7.31212 9.87328 8.33169 8.07936 
10.0208 9.66898 8.86438 9.97826 9.6274 7.31305 9.99981 9.64546 5.72942 
9.89198 4.31459 1.12929 9.88207 5.65383 0.359033 9.8705 6.99605 2.66224 
9.92879 6.98908 1.12891 9.89288 8.32922 1.90503 9.9023 9.67473 4.26632 
9.91158 9.66808 2.69715 10.0295 9.66493 1.14578 9.90098 8.33529 4.98757 
9.8474 6.98999 4.23339 9.8797 5.64412 3.45259 9.93747 6.99034 5.78064 
9.90006 5.6532 6.54179 9.90719 4.31935 2.66497 9.84803 2.9925 1.89019 
9.81962 1.64088 1.15026 9.94198 1.63803 2.67781 9.94009 1.63901 4.22802 
9.87721 4.33071 7.31751 9.88379 2.98134 8.08481 9.97094 1.63849 5.77384 
9.93139 1.63962 7.3176 9.88688 1.6452 8.86919 9.92909 2.97609 4.9967 
9.89657 4.31528 5.78834 9.8807 4.31195 4.21696 9.97965 0.30767 8.86019 
9.98968 0.314531 7.31625 10 0.303848 5.77193 10 0.303848 4.22807 
9.98162 0.31207 2.68544 9.8499 0.284992 1.1413 9.79942 3.64673 9.24339 
9.84737 4.31817 9.62886 9.85771 4.98941 9.22985 9.82543 4.98403 8.49842 
9.8518 5.66108 8.85716 9.82091 6.31389 8.49141 9.83739 6.3244 7.71001 
9.84251 6.99063 8.08419 9.89541 7.659 9.23949 9.88427 7.66161 8.47965 
9.95627 8.33275 8.85383 9.87609 7.67193 7.73129 9.94688 7.65884 6.90792 
9.92494 8.33643 7.33126 9.95276 8.99551 9.21328 9.92644 9.66386 9.63332 
9.99705 8.99669 6.93182 10.0114 8.99384 6.1597 10.045 9.64498 6.54819 
9.93911 9.69114 8.09233 9.89752 8.94053 7.66336 9.97038 8.95281 8.54891 
9.90872 6.98904 9.60741 9.87622 6.32761 9.23147 9.86045 3.65657 0.752253 
9.86594 4.31795 0.367742 9.85459 4.9838 1.54576 9.87998 4.98331 0.738045 
9.84629 5.6578 1.14991 9.88704 6.32426 2.29232 9.87363 6.32252 1.51372 
9.90129 6.9853 1.91012 9.86516 7.65453 3.08736 9.84742 7.65554 2.3037 
9.87106 8.32459 2.68634 9.93367 7.66174 1.52358 9.92796 7.65702 0.744803 
9.92585 8.32651 1.14571 9.84347 8.96161 3.83637 9.9118 8.98251 3.06098 
9.90081 9.63109 3.44949 9.97965 8.99609 0.758347 9.98509 9.66313 0.367606 
9.89886 9.67385 1.88203 9.92602 8.97832 1.4988 9.87035 8.95865 2.31325 
9.9164 6.99185 0.365636 9.91028 6.32306 0.755739 9.86184 9.58031 5.02323 
9.89012 8.9547 4.61332 9.87639 8.32409 4.22104 9.89387 8.97893 5.39325 
9.93965 8.3326 5.79162 9.88606 7.66789 3.83567 9.88839 6.98552 3.44862 
9.8753 6.32223 3.0559 9.85764 5.65609 2.67433 9.87921 6.32171 3.83895 
9.8508 6.32576 4.60989 9.84449 5.66403 4.20786 9.98992 7.65941 6.17221 
9.95666 6.99471 6.54237 9.8765 6.32524 5.4202 9.91801 6.3234 6.1477 
9.90438 5.65638 5.7902 9.87318 6.32752 6.92643 9.86628 5.64854 7.31571 
9.85522 6.98786 5.01117 9.9074 7.6565 5.38798 9.87303 7.6708 4.61818 
9.89097 4.98399 2.28683 9.88119 4.32411 1.92076 9.87098 3.63776 1.50306 
9.83845 2.98501 1.14923 9.87248 3.65713 2.29843 9.89323 3.63739 3.05589 
[...]
CELL_DATA 2484
SCALARS scalars double
LOOKUP_TABLE default
-0 -0.03948726688 -0 -0 -0 -0 -0 -0 -0 
-0 -0 -0 -0 -0 -0 -0 -0 -0 
-0 -0 -0 -0 -0 -0.070213516223 0.041858954527 -0.028748456986 -0.036592894939 
0.23773812922 -0.042541308039 -0.31365234636 -0.64711694151 -0.27515063348 -0.14068307009 -0.051445804085 -0.31287594406 -0.27760888283 
0.33283086797 0.27992166791 -0.72056367989 -0.18152685179 -0.016727211612 -0.40608962297 -0.4352625668 -0.52923999714 0.10835945111 
0.19629597025 -0.29070761264 -0.054522814253 -0.24035488569 -0.43602759651 -0.11595471313 -0.31996124499 0.079055309809 -0.35212902206 
-0.045910005296 -0.72675075774 0.034485117886 -4.7232480398 -0.014269225464 0.27000995973 -0.78694179642 -0.073704562178 -0.57288633916 
-0.48984906559 -0.46103923507 0.19493821511 -0.7090614753 -3.2577488925 -0.8191132978 -4.9196222327 -2.4506374022 0.35589580036 
0.19574681391 0.27805087377 -0.13962460976 0.32405896815 0.12082216068 0.32628185568 0.37503275516 -0.10997491991 -0.34604796992 
-0.13404239236 -0.34122017664 -0.2162863145 -0.29929232287 -0.10228638666 -0.48583616334 -0.04731823998 -0.47199446459 0.0067574051035 
0.25049565616 -0.048045818857 -0.18857221547 -0.10287348152 -0.35575905935 -0 -0 -0 -0 
-0 -0 -0 -0 -0 -0 -0 -0 -0 
-0.66014172562 -0.084514732258 -0.31468626676 -0.30183567495 -0.18631668033 -0.3231426987 0.082370698889 -0.20247331626 -0.056983326565 
-0.22030502159 0.10461951431 -0.37514188869 0.098358401436 0.06851858973 -0.21696090203 0.028328809546 -0.61977215243 0.30047838933 
-0.44152596995 -0.052882482161 -1.9432470711 -5.9994466728 -3.5821212259 0.19183211015 -0.21974027294 -0.61151288887 -0.23176264277 
-0.32850491989 -9.4946295805 -9.5216406456 -6.1517930537 -4.7689950071 -3.6339967963 -0.93879965788 -3.1675121339 -0.74405041256 
0.0043436216345 -0.04706368072 -0.74551957912 -0.27974814857 -0.39839944459 -0.25483069532 -0.31953602133 -0.1743415184 -0.35390347094 
0.56234166948 -0.50439604788 -0.4318223378 -0.25121937582 0.01607940389 -0.30413112371 -0.67776633589 -0.65055020274 -0.66416570413 
-0.43815262481 0.036667637322 -0.1197836544 -0.12526052082 0.23909923146 -4.5112499707 0.21823727414 -3.7237205728 -4.6361718152 
-0.61069534342 0.046237358955 -0.16948795186 0.43008609126 -0.19110735855 0.16456361297 0.089318636951 -0.32333013596 -0.01943253598 
-0.44583988062 -0.50562399171 -0.51219866207 0.06440273971 0.40919371902 0.38445874583 0.0099779859976 -0.66970174304 -0.44702509533 
-0.55836310645 0.44464441319 -0.89138222183 0.33496213262 -0.44569097288 -0.66920166703 0.6063809707 -0.11684826799 0.088680380184 
-0.18992759665 -0.075374591259 0.50379863927 0.55511491027 0.23192586247 0.1093836671 -0.14520805798 -0.21924794128 -0.53961464549 
-0.39705635385 0.41075236923 -0.23456938051 0.061990595863 -0.19614855673 -0.051431276531 -0.4644951118 0.33598692788 -0.11468363471 
-0.34663302908 -0.35719442704 -0.24044391376 -0.068789490936 -0.5743225691 -0.41826623144 -0.54198738667 0.35999957781 -0.92945009691 
-0.3980677705 0.15021061177 -0.83895482634 0.23852522908 -0.16588987447 -0 -0 -0 -0 
-0 -0 -0 -0 -0 -0 -0 -0 -0 
-0 -0 -0 -0 -0 -0 -0 -0 -0 
-0 -0 -0 -0 -0 -0 -0 -0 -0 
-0 -0 -0 -0 -0 -0 -0 -0 -0 
-0 -0 -0 -0 -0 -0 -0 -0 -0 
-0 -0 -0 -0 -0 -0 -0 -0 -0 
-0 -0 -0.73751996222 -0.55576072913 0.13702581525 0.02779160045 -0.54681445297 -0.2031542448 -0.2659832788 
-0.28014086356 -0.047951685899 -0.53210285484 -0.081771519268 -0.29814850777 -0.36928560289 -0.15222163327 -0.65352714836 -0.64374654314 
0.22278164831 -0 -0.44685314437 -0.22294085786 -0 -0 -0 -0 0.3348508262 
-0 -0.66970168357 -0.33485084111 -0 -0 -0 -0 -0.01533970739 -0.26286134474 
-0.61300355847 -0.48285321477 0.14101832911 -0.22997257239 -0.29926444893 -0.26437703724 -0.30713923524 -0.10260384316 -0.45118431561 
-0.23954041299 -0.37101547851 -0.17707359879 0.31949805287 -0.24512125801 -0.44616167965 -0.3397849966 -0.27289164118 -0.31651164318 
-0.75411216558 0.65230560548 0.33762219544 0.53921772036 0.16409544551 -0.71409969921 -0.074452221265 -0.081540797418 -0 
-0 -0 -0 -0 -0 -0 -0 -0 -0 
-0 -0 -0 -0 -0 -0 -0.48970479908 -0.64124346545 -0.10580699781 
-0.37299641798 -0.54777425565 -0.091207074252 -0.48246040116 -0.042492317613 -0.22916712674 0.059604557654 -0.40027707571 0.032082241083 
-0.53373333287 -0.68029545022 -0.33775394136 -0.50924038091 -0 -0 -0 -0 -0.056456614262 
-0.22210867273 -0 0.056375567366 -0 -0 -0 -0 -0 -0 
-0 -0 -0.42492289981 -0.11298139518 -0.03324731344 -0.24440388998 -0 -0 -0 
-0 -0.016925284057 -0.66970174306 -0.66970174301 -0.66970174304 -0.3348508723 0.32544428407 -0 0.3348508723 
-1.102139122 -0.92127525506 0.3145652841 0.72071115985 -0.88721988489 0.19637479598 -0 -0 -0 
0.32781278115 -0 -0 -0 0.35199103745 -0.59781425053 -1.1506351154 0.28816384786 0.45202800651 
-0.23635459827 0.58182842684 -1.328886055 -0 -0 0.027998418454 0.14749300164 -0.57334793329 0.1852022684 
0.01180018684 -0.18700143906 -0.00078666540124 -0.34957072403 -0.15606122255 -0.29720526002 0.14514941748 -0.029798460247 -0.21878901093 
0.24494537559 -0.61190882567 -0.34550373768 -0.19376706589 -0.13945559662 -0.61948876113 -0.47249026555 -0.98418569714 -0.48167439995 
-0.31967145042 -0.07261404693 -0.21465237232 0.099546639627 -0.24394247907 -0.33272329301 -0.55254776694 -0.15011729116 -0.37258276858 
-0.068948402458 0.015792468824 -1.4887472987 -0.50950633333 -0.34745791525 -0.44170659542 -0.22538592921 -0.18608643192 -0.62665846471 
-0.13397962982 -2.4027148699 0.18944672123 0.087999931918 0.19124617874 -0.49632603918 -0.35967415154 0.34681929991 -0.70296878723 
0.073889039014 -0.27949039785 -0.84106278261 -0.74759619095 -0.2155056249 -0.094183508394 -0.94391243232 -0.23348075429 -0.87763102826 
-0.084300135029 -0.41230176767 -0.0080869944807 -0.13551427484 -0.47779620752 0.42696217841 -0.27581692777 0.053718747515 -0.074305672693 
-0.21208694677 -0.40684916977 -0.27641079263 -0.1688568155 0.12092444117 0.20560486398 -0.28232752196 -0.28582597933 -0.13486929136 
0.36287454867 -0.18737064428 0.22366182479 0.30734219964 -0.072880640766 -0.24565101899 0.0066312723904 -0.020597320914 0.13918030876 
0.089063514953 0.020924178075 -0.62439600889 -0.31450032926 0.22687141622 -0.33844056622 -0.51044969202 -0.22353718772 -0.029713616131 
0.36317846917 -0.090763026375 0.075739178561 -0.02050888734 -0.2781508243 0.56665386134 0.15271326156 0.41314949566 -0.8380617946 
0.081352573247 -0.35114657303 0.7919303657 -2.656250886 -1.3013027142 0.55935402457 -0.41450753589 -0.16182400892 -0.26586941496 
-0.48747881546 -2.3505943604 -3.9464478644 -1.6003022619 -0.31165020031 0.99802195688 -1.1392177063 -1.5104998088 -0.6844013429 
-0.23793381854 -0.38861479584 -0.28551405552 0.17605813096 -0.38001567715 -0.3085989686 -0.083770612623 -0.49411806796 -0.5812763974 
0.013657496685 -0.081064473367 -0.022845076578 0.01990803184 -0.16709067073 -0.54709360685 -0.68942949615 -0.12186427107 -0.673369207 
-0.39160338157 -0.18649141194 -0.13735490215 -0.10783375984 -0.44165131477 -1.1436301403 -0.4591173525 -1.2008598219 -0.61017294916 
0.73127346861 -0.018416119005 0.15460542464 -0.81202069236 0.41191719697 -0.81945353531 -0.231322914 0.14349482402 -0.62126582918 
0.09402777298 0.49297530649 -0.41945852157 0.22586068235 -0.26246457094 0.19446865975 0.16127934409 -0.22262835445 -0.10185841126 
-0.35237028411 0.25911535247 -0.26226136263 -0.041366491488 -0.31996480608 0.035597774138 0.16808193309 -0.062121539106 -0.16769806518 
-0.099517035953 -0.63713932746 -0.40087825824 -0.17430843599 -0.60456234278 0.028551775618 -0.23453523892 0.10120581997 -0.3598170461 
0.14893555795 0.27296838348 0.16038933123 0.070310234678 -0.67058990678 -0.42855887658 -0.91168592286 -0.18793014846 -0.33596358548 
-0.0058227623544 0.12525850969 -0.167504243 0.47982770148 -0.1892760102 0.15066814313 -0.4710361984 -0.24403348755 -0.061332415333 
0.049627662808 -0.17042816339 -0.31900899278 -0.17720217033 -0.52197200072 -0.20835094409 0.47696954158 0.045470557538 0.12406952591 
-0.39283611758 -0.086048584982 -0.43025858638 -0.41633569669 -0.36690949809 0.171376882 0.25707170167 0.54707250896 -0.36142122633 
-0.32931593917 -0.23333442488 -0.13937933751 0.044575659208 -0.13330322882 -0.14953269209 -0.38172964619 0.11162037735 0.7632901826 
0.30298495447 0.33927686458 -0.65291488119 -0.18195935782 0.34074467814 0.12456259377 -0.25705239195 0.033296599174 0.33946738978 
0.078933720167 -0.024582721624 0.42251540498 0.47631217748 0.61649934659 0.44974979483 0.88852961956 -0 0.4440882386 
0.74995125094 0.10820295112 0.37368604952 0.3468931683 0.38180916556 0.26645251657 0.33177909039 0.41797328067 0.3038194615 
0.33305810413 0.40823132746 0.032365815786 -0.19417604198 -0.23171964024 -0.24869187168 -0.086246524821 0.28568927819 0.21268929219 
-0.1233313513 -0.076742915717 0.023189463611 0.057316084988 0.32238739828 0.2971599046 0.3524423463 0.0050464820378 0.062660328539 
0.034571894926 -0.27729470038 0.42883582379 0.60584012406 0.090963598818 0.41826140496 -0.39639429395 0.25972227274 -0.17765670909 
0.21124074687 -0.045270901966 0.044464672148 -0.20505249122 0.1416728752 -0 0.58012509675 0.29112990161 0.12031053926 
0.87864524871 1.0446354999 0.75674849454 0.76405082327 0.13311851153 0.20800741669 0.37887151308 -0.12048413014 0.2293285277 
-0.27986866278 -0.77136889757 0.39997489069 1.0084066355 0.36441943039 0.96049132155 -0.16438413604 0.42561509902 1.4297352034 
-0.79999052448 0.45816021037 0.69024363952 0.37820942138 0.58723010447 0.40827732685 0.032131099678 0.37424348585 0.65236184345 
0.43034319082 -0.1896545598 0.16330857985 -0.014217760736 -0.076505500002 0.53685117608 0.27649241215 0.35763892816 -0 
0.21697057034 0.44689951106 -0 0.15218393796 0.23588820143 0.50889758756 0.22627077521 0.20153544358 0.32281503554 
0.071413066507 0.20336675067 0.41522357243 0.40763197032 0.20895966749 0.6429987551 0.14943193754 0.39437523443 0.25280228305 
0.26038158404 0.21882263905 0.18052153288 -0.38400425122 -0.052136607495 0.11273181701 0.24914658626 -0.29387198242 -0.22853597877 
-0.17250414989 -0.33536506538 0.43714663386 0.11285367878 0.18603713027 0.22704763988 0.23262259927 0.58017520369 0.27796058301 
0.36243048641 -0.14752708283 0.25431473719 0.2536603926 0.30756118457 0.27861760605 0.48502250456 -0.13069191377 -0.21446468005 
0.16840962572 -0.36860977713 0.18812469943 0.14809898204 0.4949585678 0.28640433709 0.27048528479 0.39609394905 0.028227574152 
0.20419783158 0.26314988988 0.32795354599 0.31664958651 0.46839673828 0.17816737636 0.37155228013 0.54427361348 0.48635082441 
-9.9999817498 -9.9671585203 -9.9997935166 -9.9997935166 -10 -10 -10 -10 -10 
-10 -10 -10 -10 -10 -9.9997357397 -9.9972763377 -9.9972645132 -9.9856942616 
-9.9966333874 -9.9972645132 -9.9972774539 -10 -10 -10 -10 -10 -10 
-10 -10 -10 -10 -10 -10 -10 -10 -10 
-10 -10 -10 -10 -10 -10 -10 -10 -10 
-10 -10 -10 -10 -10 -10 -10 -9.9991685606 -10 
-9.9994505619 -9.9991701185 -9.9999701873 -10 -9.9991322696 -10 -10 -10 -10 
-10 -10 -10 -10 -10 -10 -10 -10 -10 
-10 -10 -10 -10 -10 -10 -10 -10 -10 
-10 -10 -10 -10 -10 -10 -10 -10 -10 
-10 -10 -10 -10 -10 -10 -10 -10 -10 
-10 -10 -10 -10 -10 -10 -10 -10 -10 
-10 -10 -10 -10 -10 -10 -10 -10 -10 
-10 -10 -10 -10 -10 -10 -10 -10 -10 
-10 -10 -10 -10 -10 -10 -10 -10 -10 
-10 -10 -10 -10 -10 -10 -10 -10 -10 
-10 -10 -10 -10 -10 -10 -10 -10 -10 
-10 -10 -10 -10 -10 -10 -10 -10 -10 
-10 -10 -10 -10 -10 -10 -10 -10 -10 
-10 -10 -10 -10 -10 -10 -10 -10 -10 
-10 -10 -10 -10 -10 -10 -10 -10 -10 
-10 -10 -10 -10 -10 -10 -10 -10 -10 
-10 -10 -10 -10 -10 -10 -10 -10 -10 
-10 -10 -10 -10 -10 -10 -10 -10 -10 
-10 -10 -10 -10 -10 -10 -10 -10 -10 
-10 -10 -10 -10 -10 -10 -10 -10 -10 
-10 -10 -10 -10 -10 -10 -10 -10 -10 
-10 -10 -10 -10 -10 -10 -10 -10 -10 
-10 -10 -10 -10 -10 -10 -10 -10 -10 
-10 -10 -10 -10 -10 -10 -10 -10 -10 
-10 -10 -10 -10 -10 -10 -10 -10 -10 
-10 -10 -10 -10 -10 -10 -10 -10 -10 
-10 -10 -10 -10 -10 -10 -10 -10 -10 
-10 -10 -10 -10 -10 -10 -10 -10 -10 
-10 -10 -10 -10 -10 -10 -10 -10 -10 
-10 -10 -10 -10 -10 -10 -10 -10 -10 
-9.9999154881 -10 -10 -10 -10 -10 -9.9999024758 -10 -10 
-9.9837105601 -9.9998849649 -10 -10 -10 -10 -10 -10 -10 
-10 -10 -10 -10 -10 -10 -10 -10 -10 
-10 -10 -10 -10 -10 -10 -10 -10 -10 
-10 -10 -10 -10 -10 -10 -10 -10 -10 
-10 -10 -10 -10 -10 -10 -10 -10 -10 
-10 -10 -10 -10 -10 -10 -10 -10 -10 
-10 -10 -10 -10 -10 -10 -10 -10 -10 
-10 -10 -10 -10 -10 -10 -10 -10 -10 
-10 -10 -10 -10 -10 -10 -10 -10 -10 
-0.059490955486 -0.1688785411 -0.02324605657 0.090095738168 -0.69139383775 -0.5341619864 -0.062413652997 0.014524751496 -0.86526081584 
-1.4706670951 0.12991443879 -0.32598180331 -0.16651998599 -0.26554219905 -0.81218150273 -0.034499746962 -0.28022648451 -0.10327110334 
-0.13631813166 -0.89062524621 -0.15698497712 -0.085967552003 -0.21016512748 1.7291019265 0.47376878679 3.6567463852 1.5212943943 
0.25730512031 -0.046107098554 4.1936868855 0.032709540447 -0.014943294557 3.3861911822 0.29636225123 2.7382007866 3.6733129523 
0.011290576794 -0.02759534427 1.8612260101 2.3405404316 -0.27786164356 3.2482051143 5.6873795157 1.6807064959 -0.0095029527829 
4.6229109061 2.2605454735 2.2855320068 4.6904153961 0.38937860481 0.044621095578 0.11162251461 0.58101353092 6.3153828977 
2.4509740104 -4.3710157818 0.9427611947 0.86610189243 -0.050704206124 1.7551718836 6.917886693 1.9752635196 5.6590082816 
-0.074785630285 0.25533144072 -1.2757442208 -0.30193092968 3.3216694273 1.9397388746 -3.1045539391 0.90722269761 0.0086385416205 
0.036422527699 -1.0456454051 5.5677808623 -0.093812094253 0.21498883053 -0.049661220687 -0.69418067479 -0.73230685115 4.6080609333 
0.87968052212 0.84411042614 3.2086953232 0.37040004653 1.3176358099 2.0664933322 2.8742195616 0.022790652386 2.7213068136 
2.3886019651 2.6419174896 2.5051444941 0.23614263051 3.2980153011 -0.12182944632 3.9366602944 -0.0064383042379 -0.34619190335 
-1.4047837983 -1.6095189287 5.0392770015 9.5845040464 -0.13455555143 3.4193691381 2.4261397339 -0.018017114443 4.6499627071 
1.2269368307 -0.02645499069 -0.03313670662 -1.0301580992 0.30241223454 3.7147190685 4.2324461842 3.562345566 -0.012908797576 
-0.32919211353 2.0928873012 1.6509630415 3.5215006271 -0.027956261319 1.008346933 0.32351551178 0.81687308112 6.5037541002 
5.2709433789 4.9454318772 0.15007725512 -0.045362148672 -0.21266213718 -0.46347142613 2.8576395973 -0.090558754295 0.50775962122 
0.49783999393 5.1853797508 6.6716626668 -0.10796787005 -0.042629412905 -0.35240295792 -0.00041747869197 -0.65630926412 3.6419656685 
0.085655908684 4.3698201171 5.97302033 -1.5782272252 1.4837082834 2.0556698051 0.013884159824 5.5155349781 2.4226674556 
-0.042317581357 3.8101812951 3.9235542748 -0.15931218312 3.9557160647 1.2924661728 0.03074452934 -0.46397068468 -0.18987763925 
-0.18284858527 3.911222249 -0.00026635948539 3.2310380879 0.99192316716 -0.8126267337 -0.30029353462 1.0948706785 -0.786291501 
-1.1628293532 0.052463434871 0.10701510878 -1.9661445176 0.092093159064 -0.62108431528 -0.09091230551 6.5685640759 4.1599672522 
2.4532388094 4.8828136815 1.1010566142 1.877168866 1.9966963826 4.216325788 2.876021623 5.6620598581 0.04749258181 
5.6525928374 -0.044443093391 1.0339833833 4.0939883207 -0.073451759217 0.092685614582 -0.23722071696 1.8566662694 -0.23082953515 
2.5135524254 0.5690296178 -0.05455192559 1.2188052544 -0.01649706297 -0.025735113991 3.5329823346 0.23973575965 2.5828146015 
-0.02001644495 -1.1353452305 -0.020325613687 4.3615061003 2.4617677121 0.80499349075 1.8151103771 5.4562816704 -0.040605463409 
1.971221773 -0.033298255791 2.0401703689 0.14233435997 5.589447165 4.3076475816 0.22039779416 -0.8325139335 0.8353348365 
0.11120304953 2.1166906482 2.0966610519 -0.13545618625 1.1497550505 1.9910279153 1.6207389105 0.02668877487 2.0304547714 
2.224635449 3.757037011 -0.036176805033 3.4121333 9.2594146948 2.5166835813 0.87609219081 0.18336334022 -0.018257382548 
-0.077369178436 8.2599932617 0.034132000231 0.0063928889617 2.7399782 3.0985967311 -0.25335367654 1.1310165281 4.5655875611 
4.7873490387 5.9481304587 2.4709367709 0.58683458042 -1.900509866 0.27905327674 0.38899218685 5.1432576417 0.57288759688 
1.0227990288 9.0057820702 0.9900597729 0.13024507435 1.1674045198 0.028842987756 6.8523098729 3.0960776455 4.1667247722 
-0.5778336106 0.023553166046 2.8385800341 -0.10871790572 -1.5326484386 0.050989879792 0.027934262992 -0.058617007686 -0.019087612078 
0.030420741192 2.1695685567 7.0374125557 1.9557574173 1.8827145534 0.92764435698 2.3545688211 -0.20547522437 1.0041979441 
2.5039798243 0.079040572685 9.8735139186 -0.052516808608 -0.089923409885 3.2341359996 -0.054547085952 3.4808778334 1.7590840795 
1.5652209885 0.0028388511807 4.0664506951 1.7538292616 3.3376915642 2.6948146651 2.6546787533 -0.0083638547536 -0.051723055437 
3.8469673072 -0.060212204123 3.6024004113 0.018010480352 0.4413572014 5.7713457368 6.8824247567 6.4929223621 3.6042496861 
4.5035075671 4.2036083984 5.7969410709 1.7293603082 0.77947301784 -0.91260693931 -0.067295500918 0.38690836127 5.0597824571 
-0.30552196558 -0.06944952865 -0.078669360869 2.3194609278 4.7538436825 4.8255323584 2.2580946386 1.5559133238 -2.1619311925 
-0.28765232 1.8594903213 -0.028075685398 -0.036888416385 -0.48358934457 2.3892644836 0.027830545982 -0.035313299921 -0.055868548158 
0.023652210758 1.1234367565 0.13354650051 1.3848506363 3.311926815 -0.016915726132 0.60163643403 2.317304063 0.76707712663 
-0.77387522952 0.58834453829 0.031671816116 -0.17071982545 -0.040366468324 8.4786102877 9.0480235378 1.4444345807 1.2611281115 
9.8550711304 0.6567111169 1.0884547289 7.8681792587 3.9910574882 0.007916392747 1.2417580333 2.3388689095 3.5048082036 
2.5881667034 -0.61003593461 0.1120013702 -0.70594030324 3.6023446394 1.0079348798 2.4350990066 0.0062370333721 2.4831974432 
0.16291819642 -0.79787885928 2.4271787431 -0.028980506685 -0.096229814277 3.0567098177 1.4018959696 -1.5757594103 0.89696913293 
3.5285524195 1.5565835161 1.8772435808 -0.060260608836 4.7922930935 5.2690602847 3.6218086701 0.028441488557 0.87538251001 
0.96358990702 -0.012818438211 -1.1938153433 1.861329511 4.5203257805 -0.048378029873 4.8924616695 0.054203638732 -0.047295337055 
-0.016845062681 -0.0075142497152 0.74116213203 -0.81770063377 -0.0054648687846 -0.11547817854 3.2223885275 2.5289795313 2.1597918973 
-8.64317751 0.71177741264 -0.36645966709 -0.24391163735 -9.5115463655 -0.96651282497 -0.54440923481 -5.5226375827 -5.8523982145 
-3.958572901 -7.4725617745 -8.6713746932 -2.0532094792 -0.44098814483 -4.7555198667 -6.3462475723 0.2019824344 0.11092772488 
-0.69248353236 0.32452413043 -6.9806382399 -8.6173606236 -8.179077145 -0.22651140901 -0.027738754154 -0.40390854783 0.0064210768332 
-0.40445847418 0.48477324261 -0.13425003356 -0.58998229899 -0.30049689251 0.29620451378 -0.13815108 0.034000995825 0.10323501075 
-0.15479034145 -0.63432480713 -0.2426029744 -0.43933302015 0.081452299946 0.055237579972 0.067191687725 0.26802036992 0.32677770291 
-0.48164576562 -0.66970150531 -0.68565795362 -0.25542500475 0.25202742133 0.056603922229 0.15319699182 -0.060103732565 -0.39348845671 
-0.18931896803 -0.18704694348 -1.2908872152 -0.22979199911 -0.64385613086 -0 -0 -0 -0 
-0 -0 -0 -0 -0 -0.22330941968 -0 -0 -0 
0.22659873362 0.22319722131 -0.46686317452 -0.53216796571 -0.26259047563 -0.60131986162 -0.10576595327 -0.22257343002 -0.4470702162 
-0.33512151065 -0.29055462993 -0.32994848071 -0.10699788601 -0.76914069826 -0.13056164021 -0.08285321689 -0.1673967693 0.033458503581 
-0.11508359177 -0.071188775032 -0.47142141167 -0.36771260859 -0.5217120881 -0.2035942499 -0 -0 -0 
-0 -0 -0 -0 -0 -0 -0 -0 -0.45268808582 
-0 -0 -0 -0 -0 -0 -0 -0 -0 
-0 -0 -0 -0 -0 -0 -0 -0 -0 
-0 -0 -0 -0 -0 -0 -0 -0 -0 
-0 -0 -0 -0 -0 -0 -0 -0 -0 
-0 -0 -0 -0 -0 -0 -0 -0 -0 
-0 -0 -0 -0 -0 -0 -0 -0 -0 
-0 -0 -0 -0 -0 -0 -0 -0 -0 
-0 -0 -0 -0 -0 -0 -0 -0 -0 
-0 -0 -0 -0 -0 -0 -0 -0 -0 
-0 -0 -0 -0 -0 -0 -0 -0 -0 
-0.33485075322 -0 0.49023741158 0.33485081286 -0.66594322242 0.048050718046 -0.064868083977 -0.12682501914 -0.20726215513 