# vtk DataFile Version 5.1
vtk output
ASCII
DATASET POLYDATA
POINTS 1244 float
0 0 0 0 0 10 -0.0553038 9.84657 -0.0990149 
-0.0821953 9.82533 10.017 10 0 0 10 0 10 
9.98002 9.80218 -0.144369 9.89628 9.85983 10.1118 0 0 1 
0 0 2 0 0 3 0 0 4 
0 0 5 0 0 6 0 0 7 
0 0 8 0 0 9 0 1 0 
0 2 0 0 3 0 0 4 0 
0 5 0 0 6 0 -0.0114923 6.99981 -0.0198322 
-0.0334433 7.99874 -0.0421971 -0.0538071 9.0011 -0.0415165 -0.622676 9.94979 1.03623 
-0.0806261 9.85178 1.94165 -0.119724 9.78341 3.0464 -0.0865555 9.82097 4.01946 
-0.0718309 9.8175 4.94448 -0.111386 9.81206 6.05047 -0.0570619 9.82194 7.0047 
-0.205919 9.72394 7.87879 -0.137945 9.7109 8.99213 0 1 10 
0 2 10 -0.0199616 2.99901 9.97965 -0.0276107 4.00128 9.9598 
-0.0744522 4.99814 9.9168 -0.078485 6.00063 9.89521 -0.0858029 6.99966 9.90017 
-0.0888442 7.99791 9.91388 -0.0923818 8.98996 9.93164 10 0 1 
10 0 2 10 0 3 10 0 4 
10 0 5 10 0 6 10 0 7 
10 0 8 10 0 9 10 1 0 
10 2 0 9.97853 2.99903 -0.0222607 9.94892 3.99758 -0.0332731 
9.93324 4.99907 -0.0536242 9.94063 6.00194 -0.0782249 9.92447 6.99979 -0.0969047 
9.9268 8.00051 -0.110926 9.95805 9.00506 -0.120208 10.1242 9.84612 1.00478 
9.93479 9.85388 2.00705 10.0443 9.8728 3.01598 9.9548 9.86904 3.96843 
9.91407 9.83658 4.97089 10.0496 9.92126 6.02206 10.0285 9.93025 7.00554 
9.99433 9.91593 8.0689 10.0477 10.1964 8.91628 10 1 10 
10 2 10 9.98045 2.99869 10.0021 9.97045 4.00412 9.95375 
9.93825 4.99936 9.94094 9.91917 6.00322 9.95029 9.91165 6.99286 9.97806 
9.90792 8.01403 9.98939 9.89326 8.9941 10.049 1 0 0 
2 0 0 3 0 0 4 0 0 
5 0 0 6 0 0 7 0 0 
8 0 0 9 0 0 1 0 10 
2 0 10 3 0 10 4 0 10 
5 0 10 6 0 10 7 0 10 
8 0 10 9 0 10 0.996409 9.94269 -0.155184 
1.82992 9.75157 -0.153355 2.99354 9.916 -0.0636787 4.18669 9.75443 -0.142238 
4.95243 9.83196 -0.116807 5.8202 9.80206 -0.13805 7.00059 9.90328 -0.109704 
8.06613 9.83857 -0.596907 8.96572 9.98712 -0.192428 0.879816 9.72873 9.90196 
1.80006 9.80693 9.94081 2.99665 9.91189 10.09 4.13825 9.72839 10.0827 
4.97765 9.71758 10.0939 5.78301 9.8174 10.0098 7.01213 9.88382 9.87516 
8.15759 9.77712 10.1373 8.83056 9.49302 9.85216 0 0.303848 5 
0 0.303848 1.91229 0 5.65192 1.91229 0 8.32596 3.45614 
-0.0565861 8.3257 0.368517 0 5.65192 8.08771 -0.0699297 8.32637 9.62725 
0.0151867 8.32372 6.54489 0 0.303848 8.08771 0 2.97789 9.63157 
0 2.97789 0.36843 0 5.65192 5 0 2.97789 3.45614 
0 2.97789 6.54386 0 0.303848 9.63157 0 0.303848 6.54386 
0 0.303848 3.45614 0 0.303848 0.36843 0 4.3149 8.85964 
-0.0611377 5.65376 9.63352 -0.0593032 6.9901 8.85371 0 6.98894 7.31578 
-0.0685259 8.32712 8.09031 -0.0747203 9.66426 8.85748 -0.0831629 9.64718 7.31123 
0 9.66298 5.77193 0 4.3149 1.14036 0 5.65192 0.36843 
0 6.98894 2.68422 0 6.98894 1.14036 -0.0404851 8.32643 1.90661 
0 9.66298 4.22807 -0.0535151 9.66206 2.68422 -0.059097 9.66673 1.13997 
0 8.32596 5 0 6.98894 4.22807 0 5.65192 3.45614 
0 6.98894 5.77193 0 5.65192 6.54386 0 4.3149 2.68422 
0 2.97789 1.91229 0 1.64087 1.14036 0 1.64087 2.68422 
0 1.64087 4.22807 0 4.3149 7.31578 0 2.97789 8.08771 
0 1.64087 5.77193 0 1.64087 7.31578 0 1.64087 8.85964 
0 2.97789 5 0 4.3149 5.77193 0 4.3149 4.22807 
0 0.303848 8.85964 0 0.303848 7.31578 0 0.303848 5.77193 
0 0.303848 4.22807 0 0.303848 2.68422 0 0.303848 1.14036 
-0.044871 3.6464 9.24561 -0.0569274 4.3153 9.63086 -0.0503688 4.98285 9.24605 
-0.0448709 4.98341 8.47368 -0.0560893 5.65321 8.85951 -0.014928 6.31871 8.47144 
-0.0448709 6.32043 7.70175 -0.0146374 6.99014 8.08407 -0.0491276 7.65629 9.2485 
-0.0770764 7.65711 8.47461 -0.0520887 8.32571 8.86228 -0.0590389 7.65593 7.69779 
-0.0299461 7.65713 6.93098 -0.0596039 8.32391 7.31262 -0.0825174 8.99393 9.24428 
-0.132137 9.6549 9.63128 -0.0508941 8.9966 6.92301 0 8.99447 6.15789 
-0.0600468 9.66327 6.54436 -0.0901206 9.66373 8.08815 -0.110999 8.99697 7.70529 
-0.0448709 8.99447 8.47368 -0.0781356 6.98996 9.63169 -0.101661 6.32163 9.24096 
0 3.6464 0.754394 0 4.3149 0.36843 0 4.98341 1.52632 
0 4.98341 0.754394 0 5.65192 1.14036 0 6.32043 2.29825 
0 6.32043 1.52632 0 6.98894 1.91229 0 7.65745 3.07018 
-0.0598839 7.65748 2.2982 0 8.32596 2.68422 0.0027892 7.65483 1.52662 
-0.0606181 7.65745 0.757833 -0.0344071 8.32304 1.13711 0 8.99447 3.84211 
0 8.99447 3.07018 0 9.66298 3.45614 -0.0397783 8.99625 0.752684 
-0.048183 9.66371 0.369701 -0.0448709 9.66298 1.91229 -0.0601619 8.99487 1.52715 
0 8.99447 2.29825 -0.0385085 6.98894 0.368425 0 6.32043 0.754394 
0 9.66298 5 0 8.99447 4.61404 0 8.32596 4.22807 
0 8.99447 5.38596 0 8.32596 5.77193 0 7.65745 3.84211 
0 6.98894 3.45614 0 6.32043 3.07018 0 5.65192 2.68422 
0 6.32043 3.84211 0 6.32043 4.61404 0 5.65192 4.22807 
-0.00716999 7.65642 6.15789 0 6.98894 6.54386 0 6.32043 5.38596 
0 6.32043 6.15789 0 5.65192 5.77193 0 6.32043 6.92982 
0 5.65192 7.31578 0 6.98894 5 0 7.65745 5.38596 
0 7.65745 4.61404 0 4.98341 2.29825 0 4.3149 1.91229 
0 3.6464 1.52632 0 2.97789 1.14036 0 3.6464 2.29825 
0 3.6464 3.07018 0 2.97789 2.68422 0 2.30938 0.754394 
0 1.64087 0.36843 0 0.972357 0.754394 0 0.972357 1.52632 
0 2.30938 3.07018 0 2.30938 3.84211 0 1.64087 3.45614 
0 0.972357 2.29825 0 0.972357 3.07018 0 0.972357 3.84211 
0 0.972357 4.61404 0 1.64087 1.91229 0 2.30938 2.29825 
0 2.30938 1.52632 0 4.98341 7.70175 0 4.3149 8.08771 
0 3.6464 6.92982 0 3.6464 7.70175 0 2.97789 7.31578 
0 3.6464 8.47368 0 2.97789 8.85964 0 2.30938 6.15789 
0 2.30938 6.92982 0 1.64087 6.54386 0 0.972357 5.38596 
0 0.972357 6.15789 0 0.972357 6.92982 0 0.972357 7.70175 
0 2.30938 9.24561 0 1.64087 9.63157 0 0.972357 8.47368 
0 0.972357 9.24561 0 1.64087 8.08771 0 2.30938 8.47368 
0 2.30938 7.70175 0 1.64087 5 0 2.30938 5.38596 
0 2.97789 5.77193 0 2.30938 4.61404 0 2.97789 4.22807 
0 3.6464 6.15789 0 4.3149 6.54386 0 4.98341 6.92982 
0 4.98341 6.15789 0 4.98341 5.38596 0 3.6464 3.84211 
0 4.3149 3.45614 0 4.98341 4.61404 0 4.98341 3.84211 
0 4.98341 3.07018 0 4.3149 5 0 3.6464 4.61404 
0 3.6464 5.38596 10 0.303848 5 10 0.303848 1.91229 
9.93975 5.65222 1.9161 9.93689 8.32757 3.4586 9.94175 8.32825 0.367612 
9.93544 5.65361 8.08297 9.94124 8.32691 9.62518 10.0041 8.33115 6.54164 
10 0.303848 8.08771 9.99852 2.97858 9.63148 9.9652 2.97775 0.368848 
9.99265 5.65312 4.99786 10 2.97789 3.45614 10 2.97789 6.54386 
10 0.303848 9.63157 10 0.303848 6.54386 10 0.303848 3.45614 
10 0.303848 0.36843 9.94545 4.31744 8.86222 9.89568 5.65722 9.63031 
9.96238 6.9932 8.85536 9.90615 6.99334 7.30879 9.91605 8.33186 8.08534 
10.054 9.66651 8.86646 9.9626 9.62699 7.31169 10.013 9.64001 5.75724 
9.93765 4.31257 1.14512 9.94387 5.65228 0.364838 9.96421 6.99417 2.67375 
9.94738 6.98751 1.13284 9.9415 8.32701 1.89864 9.92043 9.67228 4.25566 
10.0281 9.66937 2.68512 10.0295 9.66493 1.14578 9.95359 8.33104 4.99883 
9.93888 6.98518 4.23586 10.0046 5.65152 3.45908 9.98518 6.98882 5.77309 
9.97434 5.65149 6.54 10 4.3149 2.68422 10 2.97789 1.91229 
10 1.64087 1.14036 10 1.64087 2.68422 10 1.64087 4.22807 
10 4.3149 7.31578 10 2.97789 8.08771 10 1.64087 5.77193 
10 1.64087 7.31578 10 1.64087 8.85964 10 2.97789 5 
10 4.3149 5.77193 10 4.3149 4.22807 10 0.303848 8.85964 
10 0.303848 7.31578 10 0.303848 5.77193 10 0.303848 4.22807 
10 0.303848 2.68422 10 0.303848 1.14036 9.95872 3.6474 9.24564 
9.96254 4.31655 9.63141 9.92941 4.98744 9.24162 9.94737 4.98503 8.47406 
9.91304 5.65486 8.85927 9.93232 6.31629 8.48063 9.9038 6.32213 7.71212 
9.91392 6.98632 8.09543 9.94921 7.65912 9.24338 9.93303 7.66135 8.48407 
10.0048 8.33384 8.85478 9.87104 7.6659 7.70303 9.95957 7.65645 6.92031 
9.91051 8.33441 7.32397 10.0193 8.9938 9.22271 9.94709 9.6631 9.63468 
9.9833 8.99628 6.93163 10.018 8.99314 6.15961 10.0307 9.64426 6.54757 
9.94979 9.68718 8.09816 9.91362 8.94187 7.65508 9.962 8.95671 8.54279 
9.92496 6.98875 9.62562 9.9123 6.32288 9.24152 9.94874 3.64735 0.753318 
9.94589 4.31635 0.367298 9.92026 4.98384 1.53521 9.93404 4.98803 0.740932 
9.88521 5.65159 1.14782 9.94659 6.32052 2.29828 9.92646 6.3196 1.52306 
9.90696 6.98848 1.91073 9.94735 7.65838 3.07893 9.92644 7.6562 2.28601 
9.93857 8.32701 2.68337 9.91872 7.65924 1.53002 9.94055 7.65663 0.74438 
9.94076 8.32626 1.14462 9.91052 8.96771 3.84191 9.99585 8.99233 3.04883 
9.93002 9.632 3.44889 9.97965 8.99609 0.758347 9.98509 9.66313 0.367606 
9.76351 9.65402 1.87238 9.96093 8.99289 1.51055 9.92653 8.97229 2.30308 
9.91313 6.99163 0.365832 9.90784 6.3221 0.752861 9.96187 9.59536 5.0114 
9.9698 8.96967 4.60699 9.95236 8.32804 4.22025 9.951 8.98805 5.39618 
9.96166 8.33079 5.7762 9.92693 7.66751 3.84647 9.95828 6.98743 3.45692 
10.0005 6.32181 3.06846 9.96538 5.65218 2.68115 9.93773 6.32323 3.84418 
9.94604 6.32219 4.61496 9.95191 5.65071 4.22771 9.96667 7.657 6.17044 
9.96245 6.99388 6.53861 9.97051 6.32427 5.39333 9.95627 6.32203 6.14957 
9.97661 5.65485 5.77446 9.96069 6.32418 6.92778 9.96628 5.65177 7.31564 
9.95047 6.99101 5.00911 9.99653 7.65857 5.3905 9.91847 7.66569 4.62212 
9.95467 4.98306 2.29869 9.93992 4.31538 1.91229 10 3.6464 1.52632 
10 2.97789 1.14036 10 3.6464 2.29825 10 3.6464 3.07018 
10 2.97789 2.68422 10 2.30938 0.754394 10 1.64087 0.36843 
10 0.972357 0.754394 10 0.972357 1.52632 10 2.30938 3.07018 
10 2.30938 3.84211 10 1.64087 3.45614 10 0.972357 2.29825 
10 0.972357 3.07018 10 0.972357 3.84211 10 0.972357 4.61404 
10 1.64087 1.91229 10 2.30938 2.29825 10 2.30938 1.52632 
9.9355 4.98096 7.70079 9.95522 4.31507 8.08785 10 3.6464 6.92982 
10 3.6464 7.70175 10 2.97789 7.31578 10 3.6464 8.47368 
10 2.97789 8.85964 10 2.30938 6.15789 10 2.30938 6.92982 
10 1.64087 6.54386 10 0.972357 5.38596 10 0.972357 6.15789 
10 0.972357 6.92982 10 0.972357 7.70175 10 2.30938 9.24561 
10 1.64087 9.63157 10 0.972357 8.47368 10 0.972357 9.24561 
10 1.64087 8.08771 10 2.30938 8.47368 10 2.30938 7.70175 
10 1.64087 5 10 2.30938 5.38596 10 2.97789 5.77193 
10 2.30938 4.61404 10 2.97789 4.22807 10 3.6464 6.15789 
10 4.3149 6.54386 10 4.98341 6.92982 10 4.98341 6.15789 
10 4.98341 5.38596 10 3.6464 3.84211 10 4.3149 3.45614 
10 4.98341 4.61404 10 4.98341 3.84211 10 4.98341 3.07018 
10 4.3149 5 10 3.6464 4.61404 10 3.6464 5.38596 
[...]
CELL_DATA 2484
SCALARS scalars double
LOOKUP_TABLE default
-0 -0 -0 -0 -0 -0 -0 -0 -0 
-0 -0 -0 -0 -0 -0 -0 -0 -0 
-0 -0 -0 -0 -0 -0 -0.087424078423 0.24422837502 -0.41238594669 
-0.44657950717 -0.7107871439 -0.12288085431 0.2506429258 -0.12641975902 -0.32610696515 -0.44904207922 0.04744534757 -0.10724441408 
-0.44640073067 -0.32976961948 0.55972514237 0.2288301819 -0.06119509941 -0.17862764111 0.24987271038 0.16410221802 -0.66530940012 
-0.074424942132 0.1122692287 -0.22720893677 -0.0055565914835 -0.77427127855 -0.59427367606 -0.79815062537 -0.27166526819 -0.31300851405 
-0.023311266486 -0.66289735366 2.2162250269 -7.3953390975 -0.010764036913 -0.60675976219 -0.31191971359 -0.44692514014 -0.51248119529 
-1.7962339866 -5.1481998078 -1.4894460713 0.99627086311 -8.721016781 -0.037419681696 -8.1681607003 -8.7628496212 -0.43223126432 
-0.69661893836 -0.3143544677 -0.16542985338 0.23178374848 -0.32194595135 -0.17578243792 -0.13913942307 -0.55958840204 0.36880277239 
-0.17999892677 0.037890465383 0.29594639252 -0.026545906071 -0.019122300016 0.19398966819 -0.64347703494 -0.038411367095 -0.052897597366 
-0.55916646275 0.11250492146 0.49273588678 -0.071813781938 0.07094724335 -0 -0 -0 -0 
-0 -0 -0 -0 -0 -0 -0 -0 -0 
-0 -0 -0 -0 -0.44606588674 -0 0.5931208997 0.44608582305 -0.43379975697 
-0.60005893229 0.22875856999 -0.075779971357 -0.18448591899 0.041886459817 -0.8921707008 -0.42592207843 -0 -0 
-0.39925337499 -0 -4.6788255455 -6.017002639 -6.1238656298 -4.8047189727 -0.20669413903 0.1488962043 -0.0075704093154 
-0.024648495252 -8.9331846437 -8.9382379898 -7.0465553946 -2.3476740509 -1.8437859249 -0.13590596537 -3.4762204067 0.085126820002 
-0.33815780629 -0.23017239707 -0.79905380805 0.30015327626 -0 -0 0.1481220861 -0.73433302875 0.12231263067 
-0.22010099103 -0.61935188629 -0.10633980158 -0.23482747324 -0.46201106019 -0 -0 -0 -0 
-0 -0.2875402251 -0.12849426437 -0.20268142571 -0.1828565887 -4.2153884769 -0 -5.5868257932 -4.2153884769 
-0 -0 -0 -0 -0 -0.11321615266 -0 -0 -0 
-0 -0 -0 -0 -0 -0 -0 -0 -0 
-0 -0 -0 -0 -0 -0 -0 -0 -0 
0.50529570627 -0.10741235927 -0.44772025892 -0.27740304473 -0 -0 -0 -0 0.33485087088 
-0 -0.66970174301 -0.33485087088 -0 -0 -0 -0 -0 -0 
-0 -0 -0.053664976205 0.22062075976 -0 0.053582500557 -0 -0 -0 
-0 -0 -0 -0 -0 -0 -0 -0 -0 
-0 -0 -0 -0 -0 -0 -0 -0 -0 
-0 -0 -0 -0 -0 -0 -0 -0 -0 
-0 -0 -0 -0 -0 -0 -0 -0 -0 
-0 -0 -0 -0 -0 -0 -0 -0 -0 
-0 -0 -0 -0 -0 -0 -0 -0 -0 
-0 -0 -0 -0 -0 -0 -0 -0 -0 
-0 -0 0.3348508723 -0 -0.66970174306 -0.3348508723 -0 -0 -0 
-0 0.33485142138 -0 -0.66970201755 -0.33485142138 -0 -0 -0 -0 
-0 -0 -0 -0 -0 -0 -0 -0 -0 
-0 -0 -0 -0 -0 -0 -0 -0.21085953165 -0 
-0 -0 -0 -0 -0 -0 -0 -0 -0 
-0 -0 -0 -0 -0 -0 -0 -0 -0 
-0 -0 -0 -0 -0 -0 -0 -0 -0 
-0 -0 -0 -0 -0 -0 -0 -0 -0 
-0 -0 -0 -0 -0 -0 -0 -0 -0 
-0 -0 -0 -0 -0 -0 -0 -0 -0 
-0 -0 -0 -0 -0 -0 -0 -0 -0 
-0 -0 -0 -0 -0 -0 -0 -0 -0 
-0 -0 -0 -0 -0 -0 -0 -0 -0 
-0 -0 -0 -0 -0 -0 -0 -0 -0 
-0 -0 -0 -0 -0 -0 -0 -0 -0 
-0 -0 -0 -0 -0 -0 -0 -0 -0 
-0 -0 -0 -0 -0 0.017880225762 0.12250619062 0.070897488159 0.38654643229 
0.054032573168 0.10704858356 0.37323457399 0.34655169714 0.37826910041 0.36468296485 0.32418701319 0.58172877228 0.41586886312 
0.2683241655 -0.091348222123 -0.094924493418 0.06144376876 0.32111063248 -0.34935825967 -0.4289111351 -0.94406265497 -0.14103060617 
-0.63164988611 0.011399221056 0.050182413091 -0.21878523164 0.57594879645 0.084254712299 0.17269343588 -0.24707220716 0.21978994905 
0.088730025061 0.13863489809 -0.28898412947 -0.012394755326 -0.11483652862 0.048765147264 -0.20531390439 -0.061382951072 -0.46292355625 
-1.8411441175 -1.0901868642 -0.27049536356 -1.2870056988 -1.9099165481 -0.24014889025 0.24291169143 -1.8733295398 -0.38663438502 
-0.011404892158 -0.55019494114 -0.92797492588 0.1087371422 -0.67250928909 0.25714765474 -0.33978846225 -0.6616443534 -0.60860527206 
-0.16260669841 -0.27012212177 -0.084938280053 0.032375399433 -0.59134206314 -0.12611983087 -0.11791627674 -0.14011336283 0.19800106776 
-0.41533654603 -0.10646033925 -0.46775757376 0.065317677123 -0.036283375407 0.30013034635 0.10407462135 0.15559247079 0.059205315786 
0.15777805416 0.11264415778 0.27543152645 0.62603929552 -0.07700288577 0.18059230696 -0.15484272619 0.11719418081 0.19466061146 
0.046090025028 0.15681215197 -0.0095914383546 0.44175761644 0.41496782288 0.14405851772 -0.20292835231 -0.024603784857 0.26262987401 
-0.33567827865 -0.010712026215 -0.16939746887 -0.28404722618 0.11929984562 0.13020348493 -0.23372522437 -0.22670394376 -0.21668864679 
0.21726771209 0.34715577423 -1.2017427154 -2.5653843094 -2.9305809102 -1.4508283405 -0.41450753589 -0.42058537766 -0.28078808073 
-0.22674329293 -2.2019448592 -4.9177133253 -3.475319589 -6.965920035 -5.2466405431 -0.88405975461 0.98937775324 -0.57313838927 
-0.29727194595 -0.43766136562 -0.9537596519 0.20848834942 -0.86991692239 -0.35397808169 -0.039389704786 0.31401606529 0.91076663025 
2.6126076164 -0.15754072921 -0.26089816067 -0.019795908643 0.12185736017 -0.45469611762 0.10360036831 -0.2182633492 -0.48006381745 
0.39769172485 -0.3376764121 0.16656018204 -0.31186901331 -0.13954273723 1.8112420286 0.31379215593 -0.094462192703 1.8863434855 
0.53288014652 -0.26269985572 0.19494983103 -0.46421555635 0.10209636091 -0.52890523722 -0.34272902559 -0.10608981834 -0.58859626764 
0.45043132817 -0.027566879686 0.0053139717445 0.20657020597 0.31758283866 0.31053767807 0.12803344436 0.089118950108 -0.23189736941 
-0.11916771782 0.046442758884 0.59958562429 0.39236658071 0.14946365692 0.52981301511 -0.164419787 0.58545953908 0.16127995567 
-0.60569452865 0.10076205589 -0.37621336773 -0.011101285051 -0.3276296126 0.20845852448 0.2874106875 0.19867134601 0.40007736672 
0.14294411738 0.6931283726 0.50028273392 0.23594630634 0.39735638887 -0.26474956263 -0.059152254175 0.51506980654 0.038729221987 
0.022249321092 0.11915557195 0.049260551616 -0.2493446579 0.57721119448 0.29841715457 0.23756642425 -0.51935225003 -0.27010839377 
-0.44572604599 0.046839995376 0.38626610175 -0.42887397808 -0.10846741716 -0.034702166783 0.27682212878 0.22873142639 0.039929261992 
0.55481585179 0.5036615281 -0 0.38143648677 -0 -0 -0 -0 -0 
0.44738227788 0.91322830229 0.89444820605 0.22255978431 -0 0.42059606974 -0 -0 -0 
-0 -0 -0 -0 -0 -0 -0 -0 -0 
-0 -0 -0 -0 -0 -0 -0 -0 -0 
-0 -0 -0 -0 -0 -0 -0 -0 -0 
-0 -0 -0 -0 -0 0.26007825735 -0 -0 -0 
-0 -0 0.088342440441 0.63088392541 0.044509529181 0.20623827493 -0 -0 -0 
-0 0.50231856715 -0 0.60478146986 0.30794854923 -0 0.73909175707 0.33405793068 0.66815696538 
-0 -0 -0 -0 -0 -0 -0 -0 -0 
-0 -0 -0 -0 -0 -0 -0 0.19446785919 -0 
-0 -0 -0 -0 -0 -0 -0 -0 -0 
-0 -0 -0 -0 -0 -0 0.011061121833 -0 -0 
-0 -0 -0 -0 -0 -0 -0 -0 -0 
-0 -0 -0 -0 -0 -0 -0 -0 -0 
-0 -0 -0 -0 -0 -0 -0 -0 -0 
-0 0.48164915735 -0.22752017277 0.44417440002 0.021492118898 -0 0.36593107318 0.22897963625 0.34809407742 
0.38379570619 -0 -0 -0 -0 -0 -0 -0 -0 
0.41270241759 0.32351687646 0.71880422239 0.33855997356 0.22428403001 0.031417262596 0.17551611558 -0.068650542555 -0 
-0 -0 0.10968022557 -0 -0 -0 -0 -0 -0 
-0 -0 -0 -0 -0 -0 -0 -0 -0 
-10 -10 -10 -10 -10 -10 -10 -10 -10 
-10 -10 -10 -10 -10 -10 -10 -10 -10 
-10 -10 -10 -10 -10 -10 -10 -10 -10 
-10 -10 -10 -10 -10 -10 -10 -10 -10 
-10 -10 -10 -10 -10 -10 -10 -10 -10 
-10 -10 -10 -10 -10 -10 -10 -10 -10 
-10 -10 -10 -10 -10 -10 -10 -10 -10 
-10 -10 -10 -10 -10 -10 -10 -10 -10 
-10 -10 -10 -10 -10 -10 -10 -10 -10 
-10 -10 -10 -10 -10 -10 -10 -10 -10 
-10 -10 -10 -10 -10 -10 -10 -10 -10 
-10 -10 -10 -10 -10 -10 -10 -10 -10 
-10 -10 -10 -10 -10 -10 -10 -10 -10 
-10 -10 -10 -10 -10 -10 -10 -10 -10 
-10 -10 -10 -10 -10 -10 -10 -10 -10 
-10 -10 -10 -10 -10 -10 -10 -10 -10 
-10 -10 -10 -10 -10 -10 -10 -10 -10 
-10 -10 -10 -10 -10 -10 -10 -10 -10 
-10 -10 -10 -10 -10 -10 -10 -10 -10 
-10 -10 -10 -10 -10 -10 -10 -10 -10 
-10 -10 -10 -10 -10 -10 -10 -10 -10 
-10 -10 -10 -10 -10 -10 -10 -10 -10 
-10 -10 -10 -10 -10 -10 -10 -10 -10 
-10 -10 -10 -10 -10 -10 -10 -10 -10 
-10 -10 -10 -10 -10 -10 -10 -10 -10 
-10 -10 -10 -10 -10 -10 -10 -10 -10 
-10 -10 -10 -10 -10 -10 -10 -10 -10 
-10 -10 -10 -10 -10 -10 -10 -10 -10 
-10 -10 -10 -10 -10 -10 -10 -10 -10 
-10 -10 -10 -10 -10 -10 -10 -10 -10 
-10 -10 -10 -10 -10 -10 -10 -10 -10 
-10 -10 -10 -10 -10 -10 -10 -10 -10 
-10 -10 -10 -10 -10 -10 -10 -10 -10 
-10 -10 -10 -10 -10 -10 -10 -10 -10 
-10 -10 -10 -10 -10 -10 -10 -10 -10 
-10 -10 -10 -10 -10 -10 -10 -10 -10 
-10 -10 -10 -10 -10 -10 -10 -10 -10 
-10 -10 -10 -10 -10 -10 -10 -10 -10 
-10 -10 -10 -10 -10 -10 -10 -10 -10 
-10 -10 -10 -10 -10 -10 -10 -10 -10 
-10 -10 -10 -10 -10 -10 -10 -10 -10 
-10 -10 -10 -10 -10 -10 -10 -10 -10 
-10 -10 -10 -10 -10 -10 -10 -10 -10 
-10 -10 -10 -10 -10 -10 -10 -10 -10 
-10 -10 -10 -10 -10 -10 -10 -10 -10 
-10 -10 -10 -10 -10 -10 -10 -10 -10 
-0.21316035733 -0.19515108192 -0.37086029875 -0.29192688518 -0.45096222242 -0.50187522687 -0.135078197 -0.21502845554 -0.8465813487 
-1.0152811869 -0.71627479783 -0.092871209621 0.42796958851 0.66585940764 0.097299998779 -0.22655406908 -0.32624465739 -0.07120209979 
0.39248096148 -0.85043057387 -0.49110596743 -0.17060770529 -0.74405369902 3.0769499401 -0.1151968611 4.2778121664 3.1156524872 
0.67266588255 -0.12993038774 5.2776702521 0.30818205003 0.46487371077 5.1194344638 1.3284024246 4.6987713828 4.9247971805 
1.7561090545 0.69204672154 2.7385535614 2.7929005937 -0.52429432225 3.8200962507 8.7325790245 1.9888127555 1.5874435894 
5.0839671383 2.9366527171 2.9633258984 4.8535152279 2.6762998734 0.017552058517 3.183391705 3.4717379961 6.0297913562 
-0.088310483148 5.435810868 1.8480184817 -0.22460414395 -0.11051807198 4.9663748424 6.5812937893 3.5076002512 5.7840517479 
0.50457324535 0.41380702567 -0.86271726541 -0.43472794653 3.2074664504 5.5085210303 -2.5430985205 2.2845170855 2.6367086033 
0.29385938465 2.4156645795 6.6508286763 0.19650312654 1.7775619986 0.96793563802 -0.74997135633 1.8493410826 4.9701029931 
3.9268230031 -0.18546375706 4.8040214473 0.24458566868 2.4526121278 3.0594258604 3.7344140328 1.31699836 1.2424175858 
1.1067542412 3.5853003811 3.2650293453 0.18391829906 4.7869362003 -0.1055592763 4.0961068488 1.2449404571 -0.25213272763 
-0.88311237348 -0.4444663922 5.770661987 9.6633864387 1.8355739003 4.475166633 6.0865173692 0.030575323088 5.1040075316 
3.8298503026 2.4405710743 -0.015132946688 1.7718244889 2.7215447206 4.4777770538 4.9133693332 4.1516123438 -0.27024919668 
-0.43017979607 2.1907566764 2.4050523534 3.939419408 -0.074891611814 2.6068089355 2.4822665338 1.5510391193 6.6693240289 
6.0522160133 6.0652270148 -0.0093406688544 0.0057764609092 -0.14083674502 -0.083335506865 2.6227043239 -0.42921067336 4.240530102 
4.2916309631 7.4225941388 7.7453015199 0.074375582928 -0.23127845543 0.0030839677225 1.7232202841 -0.11914686418 4.6296594745 
0.49230897398 6.3085154486 6.3137566032 -0.075687629772 2.1933280491 2.557457207 0.0081856263911 6.2306886739 3.7133183455 
5.2658490806 4.8421357024 4.972690186 -0.018144062141 4.5451862137 1.6257957568 1.0552002132 -1.3277090034 0.64858034245 
-0.17545708378 4.4609090058 0.046490869778 2.3321306824 -0.023069470773 -0.59526363677 2.3520708127 0.77691881491 -0.4212623378 
-0.3266045874 0.02439065385 1.2842795453 0.44632019715 -0.21665025738 1.0911619643 -0.50847510635 7.8205073747 5.7880940393 
4.153658331 5.6450401145 3.3361774891 3.2031380063 3.3404671504 4.3828434201 2.8797025542 6.5518818212 2.403343549 
6.5083600473 0.8716934998 2.8251354305 3.7190072708 0.657078896 2.1856154062 2.5420903826 2.6251551765 2.6510367717 
2.8653538401 2.7552037943 1.5677085448 2.3393983248 0.45267207476 3.1260038103 3.4280601671 2.8712263717 2.9438474235 
0.87259779251 0.8202415095 0.75736372072 6.6063921597 3.9776347553 0.59963090849 2.1163121342 6.4123081215 2.3578530445 
2.3947727726 3.7616946179 3.5418987245 4.311383127 5.6868979404 4.148711519 1.7961521884 -0.088382775654 3.3679659213 
2.7706583227 2.9133055357 2.9804501437 -0.43789768617 1.9127188492 3.4443340537 3.1436058019 -0.28310847912 4.0481991843 
2.6567955723 4.2828441748 2.3510727426 3.969466931 9.2863010077 3.8003521958 2.1239314445 2.5248832293 1.7286082833 
-0.50155530497 9.3964083215 0.59611909341 0.21887617177 3.0428780913 3.9301922426 1.2252074224 1.4288532586 5.6610389467 
5.9103198634 6.3849068413 2.5887567674 4.7886845561 -0.7440883924 4.9684744854 3.7348771783 5.0436716505 2.8801572962 
2.0817628018 9.1669123542 4.6364912695 2.4761143894 3.8537551401 -0.012349875115 7.219492982 5.0466188457 5.3010926701 
0.018898304588 -0.49807602679 2.5693044338 0.24647832903 3.8293931098 1.527949989 -0.11325976708 0.96542630195 2.1755218316 
0.18037895378 2.361278305 8.2529581159 3.4468096041 4.1123749336 2.3776723669 3.471180723 -0.28035163584 3.4412537381 
3.6309957099 0.26788057294 9.961535576 -0.053860459474 -0.016504948155 5.9435547814 -0.39245431763 4.2156324646 2.5244798856 
2.175093611 0.57340832063 4.8105398443 2.9941571057 2.887164341 3.236280787 3.6008359477 1.72964835 0.34693716263 
4.4984797572 1.8429489125 4.1522100637 2.6600217816 1.0354072974 6.8215611021 6.9181582029 6.9908934686 3.3107622518 
6.3432306576 4.9220560803 6.5140090562 6.3530134212 1.1878684095 0.57720870148 0.5234702263 -0.17717455081 5.2051436296 
-0.17022408251 -0.30414271901 2.8173793464 3.3034243566 5.8024998397 6.0842235161 3.6198179846 3.8271894327 -1.2952794212 
-0.21779347303 2.3235876537 0.87585115886 1.7813137748 -1.0470120813 3.0223200496 1.7928254485 -0.17979966549 -0.060474610237 
1.2416685843 1.9135329655 1.7680415277 2.8949172621 3.9246053553 0.95621811621 1.4063836164 2.8981192341 4.7165062811 
-0.24034812725 0.5734396309 -0.66422737131 2.2611382363 -0.057221102074 9.1711897421 9.1610785 3.5303498289 2.8642349088 
9.9495106658 2.2057091457 2.3318047971 8.4911106626 5.0966603513 2.473090887 2.5375365491 3.3853455492 3.9023546003 
3.000873395 0.31562574859 1.5419251422 0.50580175378 4.1336960335 2.8853420835 2.5093343064 2.8909952764 2.5051911856 
1.5224105137 0.71219915596 3.3608976068 1.3178808371 3.1263339762 4.056053785 2.7912596837 -0.41247109485 3.0721089839 
4.4695789767 2.8201141416 3.0512483222 0.71059688426 4.1876958015 6.5182578935 3.6510131247 2.0604581174 2.0711686796 
3.6009772084 1.4383273653 0.35763241579 2.2609691697 6.0745903106 1.0139285251 5.2376352031 0.011906434631 0.51395579342 
-0.1236759451 0.34492682986 2.2298005631 -0.53258859004 0.50740484571 0.8082297786 4.1225059489 3.8863225353 3.2592469917 
-9.1817207994 -2.5442408409 -2.9662380324 -2.8219492453 -9.5881541286 -1.9915887469 -3.4953786811 -5.2485520861 -5.0432744677 
-6.4889325968 -6.4244504642 -8.5805912806 -2.9746774507 -0.85237325881 -2.3395529522 -9.1084070674 -3.2662989321 -2.4884667377 
-0.67738622469 -3.2285252485 -8.5637478735 -8.337582199 -6.6462647713 -0.38723634328 -0.20212231905 -0.65952333171 0.15892090707 
-1.0226963739 -0.15815640865 -0.020296338833 -0.89226480081 -0.60710298365 -0.31325108142 -0.23434637577 0.013166764013 0.093245384576 
-0 -0 -0 -0 -0 -0 -0 -0 -0 
-0 -0 -0 -0 -0 -0 -0 -0 -0 
-0 -0 -0 -0 -0 -0 -0 -0 -0 
-0 -0 -0 -0 -0 -0 -0 -0 -0 
-0 -0 -0 -0 -0 -0 -0 -0 -0 
-0 -0 -0 -0.2362211623 -0.33485142138 -0 0.36791840849 0.33485130209 -0.20317371034 
-0.037755527328 -0.45597185005 -0.66970201755 -0.12916177507 -0 -0.2035942499 -0 -0 -0 
-0 -0 -0 -0 -0 -0 -0 -0 -0.45268808582 
-0 -0 -0 -0 -0 -0 -0 -0 -0 
-0 -0 -0 -0 -0 -0 -0 -0 -0 
-0 -0 -0 -0 -0 -0 -0 -0 -0 
-0 -0 -0 -0 -0 -0 -0 -0 -0 
-0 -0 -0 -0 -0 -0 -0 -0 -0 
-0 -0 -0 -0 -0 -0 -0 -0 -0 
-0 -0 -0 -0 -0 -0 -0 -0 -0 
-0 -0 -0 -0 -0 -0 -0 -0 -0 
-0 -0 -0 -0 -0 -0 -0 -0 -0 
-0 -0 -0 -0 -0 -0 -0 -0 -0 
-0 -0 -0 -0 -0 -0 -0 -0 -0 
-0 -0 -0 -0 -0 -0 -0 -0 -0 
-0 -0 -0 -0 -0 -0 -0 -0 -0 
-0 -0 -0 -0 -0 -0 -0 -0 -0 
-0 -0.28748090295 -0 -0 -0 -0 -0 -0 -0 
-0 -0 -0 -0.23405119269 -0.073421277367 -0.15459240912 -0.2698277414 0.04312070797 0.051732384076 
-0.23951664359 -0.11680546142 -0.1496788768 -0.0047046747576 -0 -0.2081099892 0.092722556856 -0 -0 
-0 -0 -0.78054114744 -0.66970174304 -0.66970174304 -0 -0.66970181167 -0.33485114684 -0.66970188031 
-0.66970174304 -0 -0 -0 -0.52972419276 -0 -0.24343773448 -0.36246970393 -0 
-0 -0 -0 -0.5137517331 -0 -0.6059989537 -0.4463357404 -0 -0.47996021455 
-0 -0 -0.44608153852 -0 0.51233967772 0.4461308721 -0.41834986255 -0 0.72626075177 
0.41834986255 -0.16337307443 -0.037355520205 0.29370495082 -0.052669067858 0.47989678991 -0.18244601541 -0.83669972753 -0.70219523818 
-0.3356654956 0.22446198807 -0.4380387346 -0.10589033353 -0.55853209157 0.11032635472 -0.54576624318 -0.55392269102 -0.11467996924 
0.32356891294 -0.84379103366 -0.11635592795 0.0073890420191 -0.65494549272 -0.22489745212 -0.43629737207 -0.137171301 0.11797746771 
-0.063988409301 0.29990229714 -0.18632548146 -0.4284017208 -0.39580728432 -0.28804181247 -0.1919883056 -0.068698097649 -0.9228027443 
-0.28335415274 -0.26827549799 -0.54856920629 -0.0099517235689 -0.5560952542 -0.23112589838 -0.31655370553 0.15527408346 0.096721352437 
-0.549409664 -0.32505350027 -0.22379992797 -0.33011380252 -0.21931624925 -0.22431946328 -0.33088398489 -0.0017228308761 0.3348508723 
-0.66970174306 -0 -0.3348508723 0.22323069788 -0.44713765654 -0 -0.22334308967 -0 -0 
-0 -0 -0 -0 -0 -0 -0 -0 -0 
-0 -0 -0 -0 -0 -0 -0 -0 -0 
-0 -0 -0 -0 -0 -0 -0 -0 -0 
-0 -0 -0 -0 -0 -0 -0 -0 -0 
-0 -0 -0 -0 -0 -0 -0 -0 -0 
-0 -0 -0 -0 -0 -0 -0 -0 -0 
-7.2432332928 -8.1132246577 -0.58326678518 -1.455351279 -6.7890463625 0.48791769903 -4.555624604 -8.0308830232 -8.1560208863 
-2.6423430688 -9.0582757927 -8.7698899781 -5.2367347743 -3.992834805 -2.98015952 -9.4946624693 -9.4832916735 0.074629428171 
-1.0235564207 -9.4176161352 -9.5013867849 -8.7016344395 -8.2629534836 -0.03030831239 -0.28620969058 -0.1642618426 -0.096782446605 
0.090672451437 0.8281622213 -0.48244082247 0.14661103607 -0.026726453406 0.8241106125 -0.091571501996 -0.24746881818 0.15268551036 
0.90013888419 -0 -0 -0 -0 -0 -0 -0 -0 
-0 -0 -0 -0 -0 -0 -0 -0 -0 
-0 -0 -0 -0 -0 -0 -0 -0 -0 
-0 -0 -0 -0 -0 -0 -0 -0 -0 
-0 -0 -0 -0 -0 -0 -0 -0 -0 
-0 -0 0.27550791888 -0.042424408068 0.37041489932 0.74836706759 -0.027325793789 0.22253161497 0.12353251291 
0.16046225008 0.13074541937 0.46623604987 0.466308114 0.43677760574 -0.048030449785 0.2387366107 0.21460990458 0.28958683304 
0.2334309659 0.4390435759 0.52648971633 0.21576769547 0.42025954105 0.072008252899 0.60351376989 0.030810955667 0.046377513375 
-0 -0 -0 -0 -0 -0 -0 -0 -0 
-0 -0 -0 -0 -0 -0 -0 -0 -0 
-0 -0 -0 -0 -0 -0 -0 -0 -0 
-0 -0 -0 -0 -0 -0 -0 -0 -0 
-0 -0 -0 -0 -0 -0 -0 -0 -0 
-0 0.091828772031 0.14546421237 0.19936917352 0.44332514261 0.43035427948 -0.081550876117 0.44001269741 0.44983426396 
-0.068465017743 0.7678701517 0.19631500918 -0 -0 -0 -0 -0 -0 
-0 -0 -0 -0 -0 -0 -0 -0 -0 
-0 -0 -0 -0 -0 -0 -0 -0 -0 
-0 -0 -0 -0 -0 -0 -0 -0 -0 
-0 -0 -0 -0 -0 -0 -0 -0 -0 
-0 0.45069539652 -0 -0 -0 -0 -0 -0 -0 
-0 -0 -0 -0 -0 -0 -0 -0 -0 
-0 -0 -0 -0 -0 0.76798719247 0.21391219824 -0.013976459713 0.090633806523 
-0.10985771729 0.13139988449 0.30392837991 0.58625730649 -0.21444264498 0.0058078361743 0.38649137851 0.23104349519 -0.14570970239 
-0.16556278784 -0.23285055692 -0.18970290986 -0.13661837286 0.027654188655 -0.25995843484 -0.12510186274 -0.65149804776 0.98363614032 
4.5890969271 8.4064894251 -0.71084513378 -0.17885405734 0.32942171679 -0.093940707843 -0.47531842644 -0.081386558311 -0.2653541283 
-0.22900738939 -0.098883281429 2.2932440442 0.034880994375 -0.12803589318 -0.43974079963 -0.57378592639 -0.64902090396 -0.59678905486 
-0.21177981504 -0.15778675335 -0.39263472682 -0.2203067142 4.6963893733 -0.58556311108 -0.51418863744 -0.9043602805 -0.19324733679 
0.056982562693 0.090267077345 0.04017923425 0.16001820304 0.25846361462 -0.36382693596 -0.40907841947 0.47253315262 0.23778563751 
0.43870250999 0.75617592058 0.096603255622 -0.060962665019 0.3559014665 0.10143477366 0.054418218933 0.30110983923 -0.7009362775 
-0.45796240061 -0.35707434466 -0.15089516545 0.038809202673 0.16554830133 -0.45319100834 -0.063687850764 0.37648671133 0.20628093103 