# vtk DataFile Version 5.1
vtk output
ASCII
DATASET POLYDATA
POINTS 1244 float
0.167574 0.0647445 0.15915 -0.15229 0.0183971 9.93125 0.103712 9.81176 0.0895278 
0.066456 9.76753 9.74443 9.97166 -0.0591235 0.0173526 9.80278 -0.0904276 9.67977 
9.85891 9.90551 0.0780416 9.9216 10.0161 10.0513 -0.186848 -0.23079 0.930544 
-0.111775 -0.137949 1.96882 -0.191467 -0.181491 2.87661 -0.31891 -0.287176 3.93775 
-0.284281 -0.317044 4.99438 -0.317005 -0.351806 6.01556 -0.189612 -0.145583 7.00191 
-0.16714 -0.183815 7.96556 -0.257487 -0.187507 9.01862 -0.133626 0.950759 -0.143928 
0.046748 1.99013 0.0244426 0.0422821 2.94975 0.0217925 0.14617 3.97742 0.0980099 
-0.112391 4.94195 -0.182505 -0.0338134 6.04917 -0.00431661 0.0062615 7.03603 -0.0658851 
-0.0969673 8.01187 -0.0878234 -0.24076 9.16515 -0.275399 -0.151338 9.98773 0.823214 
-0.283163 9.90711 1.91661 -0.223074 9.77992 2.98134 -0.254077 9.81394 3.96024 
-0.135314 9.75574 5.00301 -0.302425 9.9909 6.01177 -0.0082715 9.63646 6.98493 
-0.190899 9.98458 7.92319 -0.114999 9.98407 8.99799 -0.0531006 0.955502 9.96025 
-0.120108 2.01689 9.97087 0.0355642 3.0576 9.7747 -0.131389 3.90282 9.90916 
0.0425944 4.96613 9.6659 -0.126816 5.99561 9.84204 0.181128 6.96066 9.62021 
-0.107525 7.94446 9.93066 0.0436427 8.99989 9.89435 10.0211 -0.0989063 0.898775 
10.0583 -0.366714 1.94921 9.74788 -0.188511 2.99899 10.0794 -0.378158 4.01551 
9.99875 -0.446877 5.11967 10.0303 -0.425543 5.91502 9.78675 -0.200522 6.99549 
10.1184 -0.378247 7.98146 9.8818 -0.121569 8.98236 9.94989 0.962235 -0.0873577 
9.87669 2.11725 -0.0758021 9.82402 3.02918 0.0155675 9.71104 3.89767 -0.178012 
9.86381 4.94228 -0.164334 9.70122 6.06896 0.0488542 10.0606 6.8902 -0.335317 
9.92521 7.89974 -0.0961386 10.1229 9.0161 -0.243715 9.91223 9.87149 0.847824 
10.1105 9.94969 1.95856 9.71344 9.80881 2.88779 9.89256 9.88067 3.96836 
9.75416 9.80863 4.91923 9.7428 9.7695 6.02021 9.79734 9.71 7.05818 
10.0465 10.1431 8.00869 9.97899 10.029 9.1282 10.132 0.847017 10.0826 
9.7627 1.9884 9.76411 9.8519 3.02247 10.0118 9.76103 3.95588 9.75339 
9.67812 5.03943 9.72742 9.5444 6.09576 9.57221 9.93368 6.98792 9.77551 
9.89067 7.92147 9.99108 9.83228 8.90033 9.81017 0.928228 -0.194012 -0.207276 
2.04508 0.0429325 0.055673 3.00651 -0.229831 -0.154573 3.94087 -0.25938 -0.143754 
5.02299 0.0298605 -0.00896004 6.01814 -0.179031 -0.133486 6.97588 -0.051844 -0.0522434 
7.94822 -0.215098 -0.176025 9.01628 -0.174065 -0.15287 1.05604 -0.23626 10.1695 
2.01304 -0.133252 9.87655 3.05496 0.100497 9.80424 3.96632 -0.208552 9.86921 
4.98099 -0.0669664 9.91142 6.02622 -0.128922 9.72683 6.97581 -0.0313788 9.82255 
7.93978 -0.333486 9.92693 9.00024 -0.106782 9.92688 0.841491 9.93789 -0.093779 
1.9507 10.0876 -0.19519 2.95103 9.83717 -0.0817884 4.00425 9.90283 -0.018012 
4.99524 9.89479 -0.0742434 5.99929 9.75255 -0.0226498 6.96866 9.8705 -0.161713 
7.97098 10.0544 -0.200535 9.06798 10.057 -0.242049 0.900735 9.81186 9.91583 
1.98422 10.0391 9.85909 2.90223 9.77725 9.69925 3.9587 9.79683 9.65469 
5.04955 9.96369 9.93114 5.92747 9.92358 9.70053 6.95231 9.82734 9.73549 
8.02464 10.0674 9.88151 8.96098 10.0108 9.92966 -0.309213 0.387784 5.00804 
-0.382272 0.296422 1.88539 -0.0753258 5.65207 1.9163 -0.176894 8.27849 3.46517 
-0.162912 8.3521 0.391364 -0.0906443 5.65485 8.08321 -0.0772697 8.39786 9.53557 
-0.224178 8.2775 6.56198 -0.460498 0.278313 8.10944 -0.062635 2.9271 9.44687 
-0.214549 2.98901 0.308114 -0.0733381 5.6517 4.99991 -0.0415164 2.97918 3.45808 
-0.0455781 2.97971 6.54268 -0.069176 0.413267 9.38855 -0.318682 0.316647 6.52975 
-0.227867 0.3419 3.4301 -0.296545 0.268944 0.282031 -0.142791 4.30232 8.81003 
-0.168688 5.68534 9.48943 -0.109734 6.98105 8.82606 -0.0844672 6.98916 7.3112 
-0.257004 8.29942 8.0753 -0.298251 9.50125 8.81283 -0.297247 9.44951 7.39667 
-0.319457 9.38245 5.72367 -0.203641 4.31738 1.15008 -0.14879 5.62404 0.401938 
-0.0687594 6.9888 2.6842 -0.143348 6.99564 1.15606 -0.17075 8.27234 1.90783 
-0.375036 9.43956 4.21424 -0.264517 9.53259 2.69996 -0.245494 9.52698 1.12525 
-0.155934 8.2983 4.99337 -0.0817803 6.98791 4.22647 -0.0762801 5.65188 3.45671 
-0.0520168 6.98448 5.77321 -0.0543122 5.65172 6.54066 -0.0542986 4.3149 2.68819 
-0.146248 2.97589 1.92272 -0.190358 1.62402 1.14019 -0.122727 1.64926 2.68256 
-0.137317 1.64753 4.22045 -0.0812806 4.30942 7.3129 -0.0968508 2.98562 8.07741 
-0.119091 1.63811 5.77458 -0.0865624 1.64031 7.31634 -0.163103 1.61861 8.84824 
-0.0688723 2.97839 4.99985 -0.0734152 4.31514 5.77177 -0.077114 4.31486 4.22809 
-0.249779 0.323032 8.82245 -0.290752 0.317118 7.32694 -0.34521 0.321192 5.81007 
-0.240449 0.321475 4.20982 -0.251514 0.315598 2.72403 -0.109737 0.410925 1.13374 
-0.19961 3.64124 9.24573 -0.100896 4.3265 9.49317 -0.109253 4.96937 9.22937 
-0.140231 4.98076 8.43632 -0.137949 5.66163 8.80691 -0.154031 6.31395 8.45032 
-0.0455975 6.31979 7.70043 -0.139428 6.97887 8.0783 -0.170049 7.66217 9.24202 
-0.199982 7.65726 8.45522 -0.201009 8.32196 8.82821 -0.0796489 7.65962 7.69643 
-0.173224 7.65165 6.92976 -0.206605 8.2815 7.31773 -0.224436 8.87813 9.26387 
-0.266063 9.39681 9.54871 -0.339517 8.89911 6.93592 -0.156942 8.86864 6.21381 
-0.301417 9.42072 6.55912 -0.174224 9.61577 8.09652 -0.222141 8.95365 7.72088 
-0.353886 8.93536 8.46981 -0.243353 7.01777 9.56607 -0.167813 6.30869 9.2383 
-0.123218 3.65836 0.749483 -0.217782 4.30137 0.37044 -0.1388 4.98316 1.52784 
-0.0993112 4.98345 0.762397 -0.20305 5.6455 1.15784 -0.0867185 6.32115 2.29967 
-0.105 6.31882 1.54106 -0.0846759 6.98884 1.92129 -0.107582 7.65313 3.08095 
-0.0835084 7.64951 2.29754 -0.19965 8.29653 2.69163 -0.140636 7.63876 1.54345 
-0.201389 7.65309 0.757307 -0.145438 8.29703 1.14148 -0.283479 8.8642 3.78359 
-0.324445 8.91001 3.02825 -0.27677 9.47373 3.41735 -0.171705 8.8912 0.773355 
-0.112172 9.43146 0.411179 -0.324616 9.55408 1.916 -0.19947 8.92662 1.53619 
-0.202387 8.94589 2.32002 -0.348355 6.97362 0.340185 -0.177292 6.31882 0.745723 
-0.312805 9.40596 4.99401 -0.277747 8.77211 4.63812 -0.162447 8.30977 4.22402 
-0.268732 8.7902 5.35067 -0.203403 8.30274 5.75918 -0.10776 7.661 3.83825 
-0.0702916 6.98854 3.45761 -0.0625317 6.31913 3.07069 -0.0570002 5.65244 2.68876 
-0.0656104 6.32021 3.84224 -0.0736508 6.31965 4.61376 -0.0734619 5.65175 4.22818 
-0.128321 7.64896 6.15762 -0.0634011 6.98538 6.53995 -0.0713401 6.3197 5.38611 
-0.0602957 6.3186 6.15409 -0.0624907 5.65132 5.77112 -0.0855916 6.31803 6.92766 
-0.0545289 5.65709 7.31202 -0.0652694 6.98602 4.99824 -0.124141 7.65313 5.3851 
-0.101019 7.65407 4.60795 -0.0952256 4.98339 2.29978 -0.110957 4.3139 1.91733 
-0.131407 3.64835 1.53292 -0.146224 2.98215 1.15158 -0.109237 3.64452 2.30217 
-0.0623973 3.6477 3.07038 0.00631675 2.97772 2.68321 -0.1526 2.30638 0.739825 
-0.175409 1.59218 0.402039 -0.198314 0.970692 0.763012 -0.184958 0.99151 1.51718 
-0.10229 2.31241 3.06964 -0.0680073 2.30853 3.84306 -0.0842185 1.64258 3.45905 
-0.222852 1.00329 2.3003 -0.200352 0.988976 3.07537 -0.153528 1.00011 3.82932 
-0.162767 0.992511 4.62127 -0.188148 1.64713 1.91991 0.00518814 2.30472 2.29718 
-0.173507 2.30573 1.54486 -0.0623003 4.98028 7.69293 -0.0825121 4.30909 8.08774 
-0.0564444 3.64543 6.92903 -0.0668794 3.64228 7.69995 -0.0741332 2.98033 7.31703 
-0.123367 3.6571 8.44323 -0.152574 2.97743 8.81382 -0.0669279 2.30901 6.15546 
-0.0502836 2.3147 6.92295 -0.134465 1.65068 6.54125 -0.210983 0.993085 5.36935 
-0.192428 0.997314 6.15318 -0.216723 1.00018 6.92387 -0.209533 0.997945 7.70894 
-0.251043 2.30938 9.20882 -0.14138 1.61831 9.56753 -0.24144 1.01297 8.43203 
-0.266055 1.03743 9.26073 -0.130622 1.6375 8.0825 -0.128211 2.3016 8.45019 
-0.0775352 2.31375 7.69925 -0.123709 1.6424 5.00424 -0.0698764 2.31194 5.38695 
-0.0669845 2.97865 5.77148 -0.0469113 2.31136 4.6137 -0.0612569 2.97846 4.22859 
-0.0683087 3.64671 6.15661 -0.0581662 4.3129 6.54212 -0.0612888 4.98189 6.92443 
-0.0716453 4.98304 6.15537 -0.0775542 4.98337 5.3858 -0.0714591 3.64664 3.84258 
-0.0759956 4.31505 3.45666 -0.0808303 4.98342 4.61404 -0.0769321 4.98339 3.84224 
-0.0732306 4.98332 3.07115 -0.0791389 4.31489 4.99998 -0.0701324 3.64667 4.6142 
-0.0729016 3.64656 5.38587 9.99455 0.293709 5.00185 9.99241 0.297547 1.93343 
9.96983 5.6526 1.91765 9.9515 8.29783 3.44996 9.95951 8.29178 0.370188 
9.93766 5.6507 8.07471 9.95151 8.31029 9.6562 9.97135 8.29654 6.5396 
10.02 0.25935 8.04694 10.2004 2.95754 9.44593 9.88788 2.95615 0.340815 
9.90242 5.6519 5 9.91483 2.97792 3.45613 9.90833 2.97771 6.54377 
9.89972 0.328177 9.55786 9.96178 0.334931 6.58202 9.92924 0.306463 3.48016 
10.0229 0.429374 0.49062 9.9531 4.34791 8.74712 9.8991 5.58539 9.43178 
9.88896 6.98482 8.8065 9.92832 6.98361 7.31518 9.93426 8.25386 8.06665 
9.97666 9.33194 8.64307 9.92266 9.51618 7.31097 9.83115 9.37985 5.81625 
9.93188 4.3176 1.16635 9.93658 5.64791 0.378016 9.90282 6.98772 2.6841 
10.001 6.99713 1.15742 9.994 8.30846 1.9095 9.88848 9.31684 4.26181 
9.98241 9.43851 2.66628 10.0723 9.4439 1.21121 10.036 8.27642 5.00417 
9.90751 6.98818 4.22801 9.91512 5.65187 3.45615 9.9078 6.98809 5.77148 
9.90896 5.65203 6.54396 9.9213 4.31507 2.68475 9.96338 2.9751 1.91967 
9.96691 1.64182 1.14651 9.93787 1.64472 2.68688 9.95488 1.64488 4.22767 
9.90492 4.31499 7.31434 9.9851 2.97259 8.06693 9.92818 1.64496 5.77463 
9.96532 1.64252 7.31295 10.0254 1.63223 8.80176 9.90629 2.97787 4.99998 
9.89765 4.3149 5.77191 9.90378 4.31491 4.22808 10.0548 0.373537 8.83723 
10.0819 0.283677 7.29462 9.97856 0.34184 5.7605 9.88565 0.296127 4.23033 
9.99245 0.299379 2.71771 10.04 0.386063 1.11176 10.0072 3.60887 9.21845 
10.03 4.36105 9.41032 9.94896 4.99896 9.26423 9.94781 4.98579 8.44942 
9.93925 5.62671 8.78928 10.0803 6.32342 8.45531 9.94982 6.32087 7.69906 
10.0091 6.9902 8.07733 10.0899 7.65909 9.26671 9.96367 7.62822 8.45798 
9.9077 8.20422 8.87228 9.95835 7.6384 7.70104 9.92667 7.63774 6.92196 
9.87869 8.28268 7.31152 9.72685 8.84032 9.19714 10.1115 9.44679 9.33142 
9.9892 8.89332 6.90499 9.98545 8.89159 6.1818 9.85901 9.42087 6.5367 
[...]
CELL_DATA 2484
SCALARS scalars double
LOOKUP_TABLE default
-5.1769397674 2.707130331 1.1985780027 1.2336894357 -4.7694044974 -2.3626438581 -1.191024913 -0.3067759566 -0.52135333123 
-2.2282685087 -0.33622779617 1.3333584808 0.51576920475 -1.0854572652 -1.4764256421 -5.1062270175 0.52321041482 -7.4045275824 
-4.1530912864 2.0829692992 -5.0294825025 1.1205185294 -0.3438847563 1.9774827874 -2.3586685483 1.2236003246 -1.4321872776 
1.2353835097 0.25463235717 -0.67291292076 0.39014196134 -0.17754220266 0.11967575292 1.8672283805 -1.9357064754 1.2195629524 
-0.15400851798 0.44030242965 -0.99748490752 -0.58485956299 -1.1143070903 0.57914781958 -0.43849094832 -0.22950791487 -0.62724627065 
-2.3405593927 -0.67369247896 -1.2699942731 -1.7780534301 0.47807788767 -1.1073116949 -0.011327394769 -0.54344739607 -0.96243500499 
1.4424112124 -3.0027739629 5.2131672802 3.2409618487 1.6666159092 -0.33271556787 0.74574261804 -2.7243482647 -1.0267582446 
4.9271451455 0.18154837534 3.7321092206 8.2242070197 -0.1199496793 -0.50707404086 3.8554650805 0.33164109716 -1.9622603713 
0.16989687403 -1.154916384 -0.0047583515833 -1.9761173942 -1.884983082 -1.5696495989 -0.41882724794 1.8042202343 -0.31088570016 
1.6507085047 1.0673038558 0.22031178805 -3.4027149403 0.75738206184 -0.59843181043 -0.1649186819 -0.34314055165 -2.035157665 
0.36197695292 -1.1056485541 -0.23230430714 2.5010505296 1.3094277218 1.2365143143 -1.3350583417 -3.6271181426 -4.1324121914 
1.254666647 -0.028781957734 -1.1474724132 -1.2470199957 0.97697143157 1.6761708963 -0.67609949966 1.6298843338 2.8659505 
-0.30866034552 0.14877918522 -0.13072191319 0.16679780135 -0.40146516637 -1.260316949 -1.5796306364 -1.5911359543 -0.41715276333 
-0.27988027538 0.6972978944 0.4019039949 -0.91198865788 -0.41586477389 -0.10111439499 -0.41557895273 -2.003839439 -0.64113418248 
0.90816184506 0.45123166799 3.8114384251 1.6857442057 1.2310122205 2.3800944872 -0.13508517598 -0.52986045491 4.7958924719 
1.8274899255 1.3375901725 0.73733129472 2.0651591287 1.1609607181 1.1612043413 -0.97924336126 0.90408895752 -0.3117185521 
-0.63654988531 -0.64718969321 0.054488293834 -0.24851407815 -2.1180886482 -1.0371483812 -0.45328068066 -1.5068871215 -1.3979993048 
-1.9628086227 0.61093916362 2.2569710275 -0.93477594236 -2.9573945821 -0.049345691206 -0.055694998601 0.49272773624 0.93096942482 
0.63653093711 -1.0018142221 -0.10539747015 -1.3058353029 -0.12289781834 4.5236857116 -1.5016953659 1.166574758 4.4881418849 
-1.9296538181 -2.4579780232 -2.2680275865 -1.7287238847 -1.8165219361 0.99829429797 -0.2346868188 -2.3607249559 -0.78072170149 
-0.97016670306 -0.63182659049 -1.1071773238 -0.57150038615 -0.47180077275 -0.55826685912 0.088135472844 -0.30605987244 0.060806696221 
-0.26206463804 -0.18208812301 0.13854797001 -0.0037549377065 0.05730685082 0.18278307061 -0.15607596637 -0.10444281583 -0.092926862975 
-1.1440509686 -1.0570925359 -1.4759251771 -1.2975261684 0.20669182097 -0.051387777219 -0.028107284664 -0.049595887552 -0.27889892265 
-0.46919195361 0.40776944555 -0.16853532315 -0.27913738279 0.17324705932 0.039370788047 0.14250871305 0.012613333545 0.19081066391 
0.0023380360086 0.10851341344 -1.1066922168 -1.319412342 -0.86125633489 -1.177044475 -0.33700550691 -0.89149096793 -0.97523263307 
-0.88671103114 -0.67210761027 -0.41029535653 -0.97569925869 -0.70735600559 0.61903199009 0.28556386902 -0.18450095099 -0.087351558643 
-1.1403138981 0.82038549764 0.22150319791 0.28006962044 0.46815539627 -0.57333414662 -0.6668537488 -1.3657446134 0.38842433501 
0.39519231313 -0.3863348012 0.1403264032 -0.053088200103 0.4233000512 -2.0093241257 1.9057677689 0.019848728116 -0.11410750669 
0.93909381398 -1.4238147783 0.24467069069 2.1206181406 0.64930370607 1.8780870329 -0.045020126807 0.018597489782 0.64506081816 
-0.012122812482 1.350146786 1.3308123918 0.59528825939 0.60115117815 0.31883370172 1.1992706346 1.7403855196 1.21289225 
0.75595267419 0.67116950911 1.4604859313 1.407876198 2.478620071 1.0347185596 -0.067290128353 0.25052605709 1.109062809 
1.2599173244 -1.1064464942 0.80896929211 0.40070277571 0.40473554725 -0.39565630481 0.25230174155 -0.90291105169 0.23443433085 
2.3732398613 1.5157119991 0.18534612473 0.29173600483 -0.42228998252 -0.31350721839 -0.29494117339 0.050774981583 0.28331038286 
0.18739044483 0.23528485023 0.017187687102 -1.5218297609 -0.088868516661 0.019297433768 0.17184966498 -0.22508645147 0.20930673224 
0.19386595574 0.89589592295 0.90006028682 1.1402401498 1.2695554817 1.7721391974 2.0218591964 2.0971791681 1.9363008977 
1.2786988447 2.2386388981 1.1323595258 1.653074893 1.6160942554 1.0106992857 1.0700320745 1.8387001668 -1.4153474875 
-0.63734507602 -0.85653271178 1.5101960145 1.6429613296 -2.2233513745 -0.046423359419 -2.4261021904 1.9474675596 3.0483192697 
1.0723100802 0.4837151502 1.5388410244 1.5450725569 1.4913605592 -0.42431985318 2.331102186 0.046243936929 0.50623931092 
0.33302472546 -0.11973936979 -0.13993784072 -0.1502522524 0.091294527561 0.45882627049 0.2671720472 0.40505696647 1.9652054385 
1.3690906762 0.49607660416 0.97455633781 0.75195104864 0.15811571495 0.029270847652 0.021200738856 1.1933150483 -0.27194602832 
0.24790935624 -0.056870585401 -0.15728214987 1.2442207505 0.76504663475 0.96918429524 -0.25201622699 -0.2000232569 0.037626454895 
0.063291353624 0.28991718494 -0.14880636272 0.1021313686 0.10753554746 -0.017593587634 0.19798541977 0.14430699041 0.1811440906 
0.18141555187 -0.087022215398 0.12431197316 -0.12350600934 -0.38040182635 -0.076249605066 -0.040330666243 -0.13571220089 -0.02642831059 
0.11117393859 0.030823413103 0.081084467678 -0.44595413069 0.099093770559 0.43300171685 0.40504012462 -0.017930639884 -0.12142941382 
-0.0056462815776 0.013683751299 0.087593172177 -0.040443267875 -0.019099428579 -0.00079446913626 -0.094543182198 -0.3006216205 -0.075834656407 
-0.14273546173 -0.042081097525 -0.074449568504 -0.17988407301 -0.054178958493 -0.039567390679 -0.050494204691 -0.11963173465 -0.11404720481 
1.298829481 -1.9099793069 -3.2831227377 -2.7515694656 1.4341521058 -4.2847772933 -1.2662476475 0.71423284133 0.58937028308 
-3.1804594832 -0.16622881071 2.5814201897 -0.39574589668 -4.0987894372 -2.7379443433 0.98470791744 -0.25954928154 -0.48232071493 
0.091749643641 -0.61178059569 0.98706751716 2.4977703219 0.089336211549 -3.8818957095 2.1857670674 -0.0070663342952 3.4226584528 
-1.5165979787 0.075754816748 0.6566087447 0.14284986182 0.14229224275 0.98912086198 0.72715298993 -0.72218328822 2.1770440165 
-1.1229251498 1.9460635318 -0.28599060866 0.089250657337 -1.9087637734 2.5743044598 0.70117765599 2.078325282 -0.21891794835 
0.80559680829 0.018480042619 0.98441000323 0.42932395292 0.1654295303 -0.26643859528 0.74514641759 2.4130110294 -5.2128372432 
1.1235273349 -5.1796845693 2.4248354243 1.4532991646 -1.5198469631 -0.26762292332 1.7092474246 2.6508062778 2.3589485406 
1.7758308087 2.463822199 2.6875390464 4.1811254896 -2.1373618807 0.50371506789 0.84264574375 -2.1321487172 -1.0105708063 
-0.32330325313 -1.2112689648 0.65633975061 -4.4709277942 3.1709567279 0.15479271048 -2.359517639 3.7044381448 0.36005242556 
2.5903004119 0.59285434864 -2.8518913999 0.7515734089 2.6846578993 -2.0260898985 -1.842960132 -1.7908074345 1.8991683779 
0.61929983522 -0.61046217313 2.5229406996 -3.743912539 -1.9266075981 0.8914227252 1.6251700458 -1.4059063292 0.55390529983 
-0.40286771134 -0.49427442102 0.25475999887 -0.33092676978 2.0273180608 -0.92706033095 -0.10997656481 -1.1214942649 0.043406421677 
0.12948660836 0.55205491261 -0.48533179062 -0.082634834165 0.31594163883 -1.1142957863 -1.1917553419 -0.92499511441 0.57545333514 
-0.4166674381 0.50881828812 0.27903204892 -1.1804586076 0.62973633072 0.6790082899 0.76149370729 0.056722756196 2.0790315776 
-1.5053562262 0.16652215922 0.70362321574 5.5567285406 2.7858630386 0.25805493045 -0.29898304208 -1.2064536912 2.5753951168 
1.6090750309 4.587548599 2.3508644458 1.441673225 -3.2694108849 -3.4647725902 -1.1532220054 3.6106102994 -0.53672202724 
-0.99656772231 -1.0265011912 0.34344960612 -2.4482665923 1.2885581733 -0.93396629769 -1.2538936419 2.2964469722 0.47646805958 
2.0352667194 0.70972083299 1.2482779322 1.3651987276 -2.2020201982 -0.45421751225 -0.50786497813 0.37400721846 0.16931865192 
1.5718183716 -0.60704113795 -3.7421250794 -1.6540069987 -0.028094692901 2.9443600217 2.4674270798 2.1231520586 2.841839508 
-1.4768996952 -0.63475193633 -1.8066963152 2.3561474002 0.92747655374 -0.755121779 -0.77742798988 1.4213014832 0.94435160491 
2.104651315 1.1054224443 -1.0472696443 0.43247203418 0.17881734939 0.29077739884 0.74161204389 -0.40193957804 -0.2347519398 
-0.48864363732 0.042234781244 0.12286835539 -0.19779914932 -0.05160401389 -0.042846688376 -0.038457374953 0.4506675643 0.22103100224 
-0.64707728385 -0.2679188208 -0.048496099867 -0.15031358211 0.061118101726 -0.15213181597 -0.070250752779 -0.1298166262 0.1242412459 
-0.13551489878 -0.31648197322 -0.25673268124 -0.1204072393 -0.0055531744052 -0.038414906438 -0.028040738179 -0.19454715483 0.11782621151 
0.19319954698 0.19453567913 -0.24647780834 -0.097848933029 -0.81177400909 0.33535232292 0.12726778985 -1.0414824983 -0.54608686784 
-0.12971569891 -1.9686981356 0.0046754821738 -0.18236306967 -0.12832634024 -0.35342620341 0.45870790947 0.25836404641 0.99947987879 
0.57195205015 -1.371596122 0.32104060163 -0.29769711547 0.16437558622 0.013051392239 0.030654062193 -0.059918786808 0.33677776257 
-0.33660352187 -0.53115408279 -1.0805251566 0.74329483075 0.31259485488 0.34318768251 1.0254227861 1.4040667209 -0.41652172573 
-0.62917557314 -0.25964957151 1.3470693168 0.64027087814 0.3112461914 0.012728204939 0.47476995335 0.048569819096 0.61149849832 
0.49842816968 0.39579821771 -0.013124099899 0.4192637065 0.44645296137 0.4942545868 -1.124703502 -0.70937354142 -1.4703546232 
-0.4803198827 0.3664024433 -0.29538536914 -0.12879441026 -0.45260122628 0.46566710844 1.2250059836 0.57721825163 -0.19382795241 
0.42802154357 0.08254165557 0.33728588195 0.34731420214 -0.3038355357 0.43918354559 -0.13705998631 -0.27899912929 0.60110052321 
0.17582061335 0.65833300819 0.038167941549 -0.13675951337 0.0022061910946 0.019258546808 0.33388962843 -0.039169267443 0.34022774357 
0.0072396433577 -0.090674706404 1.3077076976 1.7865234286 0.77516516763 0.95128073915 -0.57099468412 0.15648317473 -0.30417362415 
0.13469407898 0.22007883508 0.37242603278 0.15129684412 0.32434294719 0.54488229241 0.33168765444 0.45016898787 0.45746012499 
0.57363908697 0.56994410414 1.2371943188 -0.083062674066 0.53170906012 0.32113025136 0.57378843109 -1.981712889 1.6222692984 
3.8555624051 3.2720677651 -0.54263858119 -0.45817761209 1.1823771575 1.1471778317 -1.4142008128 -2.6473077181 -0.23531295325 
-2.6615596298 -1.7940850005 0.85334611429 0.39312462578 0.58014061617 0.87548220926 -2.7560781269 -0.32568085845 -0.65705998339 
0.5836913197 -0.39099118863 0.052116301979 -0.021436744636 -0.49121714089 0.78480190871 0.5827360596 0.72833342474 0.36335520747 
0.25664828293 0.63645402171 0.46917390889 0.20677774003 0.093326071828 0.14722107943 0.13393029575 0.51432527945 0.15005093988 
0.10085293489 0.10031896598 0.17416325459 0.39784524428 0.26423022501 0.30742763409 -0.013514502358 0.28609314468 -0.0010591096707 
0.16607229703 -0.19915482795 0.058997345104 -0.15410922753 -0.017083583295 -0.027283176405 -0.091797538961 -0.057032744897 -0.055788499154 
-0.1055050004 -0.030750961168 -0.035007076282 -0.056528002403 0.0024178789541 0.023152990014 0.036936441094 0.02823953406 0.0027319513496 
-0.054885223104 -0.071777483588 -0.049234321261 -0.21665510588 0.057710294777 0.081323064413 0.24029864259 -0.020363765934 -0.063672029312 
0.031097596177 -0.014495805718 -0.036369176845 0.0064112074036 -0.0097274550705 -0.014077535663 0.041272419381 0.068031221854 0.10267144255 
0.11045643895 0.019900155703 0.086043081769 0.13602833011 0.097410796416 0.068835965339 0.026770554246 0.027343683578 0.039475956355 
-9.1233785939 -9.8696916854 -9.1897558204 -9.3493736666 -9.6640995742 -7.8748568253 -8.125125199 -9.3327323914 -9.5354903221 
-9.7411106958 -9.3374123198 -9.7161478108 -9.7751409848 -9.6876888501 -9.7264279637 -9.6555477789 -9.7855291764 -9.7606102102 
-9.7993396194 -9.6534392277 -9.953317876 -9.6838362755 -9.4296962434 -9.5719940177 -9.2972261654 -9.6627632731 -9.7267456014 
-9.7581530494 -9.9315019239 -9.9624287199 -9.9760299631 -9.9758805643 -9.7497265085 -9.6440520092 -9.9051171602 -9.8425392284 
-9.8940617704 -9.9819038832 -9.9240014643 -9.9039894148 -9.9620473499 -9.9768593158 -9.9783204864 -9.95978717 -9.9670180284 
-9.8506110107 -9.9750082584 -9.9421830781 -9.8366844554 -9.9044508017 -9.9780049015 -9.8865937698 -9.9521203293 -9.9143606544 
-9.9459084561 -9.9847353896 -9.3898926314 -9.8835222383 -9.3894769223 -9.8013813058 -9.5727426378 -9.7693704094 -9.7617183269 
-8.8867848179 -9.7458710382 -9.6489360954 -9.0494935919 -8.5041134613 -9.4689367666 -9.5558367263 -8.5290491345 -9.8279108357 
-9.9138498857 -9.8970177319 -9.8705155683 -9.9956932832 -9.9805925965 -9.9958338521 -9.9756423585 -9.1602698666 -9.3591684178 
-9.116761934 -9.9633783341 -9.7843596768 -9.0847771763 -9.943050076 -9.9766924089 -9.8671919782 -9.8640725955 -9.9021478457 
-9.9483273597 -9.7877786201 -9.7588966451 -8.4897762112 -9.7875784592 -9.1563303514 -9.8967813626 -9.7098216033 -9.912623747 
-9.9919122389 -9.9269750287 -9.9656667592 -9.9754147329 -9.6656650317 -9.6294326128 -9.6688936281 -9.9994879191 -9.9445792118 
-9.9680263852 -9.9992846491 -9.9466686188 -9.9653128334 -9.975817634 -9.8978745368 -9.9688654108 -9.8984251217 -9.9940527953 
-9.973096518 -9.9940473047 -9.9871765738 -9.9777207544 -9.944710802 -9.9994411809 -9.9670353454 -9.8695863238 -9.7850977497 
-9.604452678 -9.6073749766 -9.9896488022 -9.6158415682 -9.5668678822 -9.9037435429 -9.8396912007 -8.3578865335 -9.9846927116 
-9.8354135165 -9.9023260386 -9.7560736717 -8.5992852216 -9.5445830373 -9.561829068 -9.9870491476 -9.8529725255 -9.9853405804 
-9.9737729408 -9.9908453487 -9.9564080971 -9.9427742357 -9.9527828425 -9.9763008499 -9.9449993477 -9.956005284 -9.8783241997 
-9.8828243975 -9.9997554426 -9.6203741821 -9.6201086672 -9.9122631797 -9.9903610654 -9.9599183601 -9.9275704785 -9.9701149304 
-9.8262877485 -9.9869698447 -9.9302607893 -9.3174499328 -9.2231975551 -9.9498497351 -9.8754330186 -9.8035711625 -9.9668004017 
-9.8378078821 -9.9178927968 -9.8856193697 -9.9883454811 -9.9078696677 -9.8707965167 -9.9716539342 -9.8890416445 -9.9423628609 
-9.8707373586 -9.9198508677 -9.959266129 -9.9794081251 -9.9718525404 -9.9657295352 -9.9752919144 -9.9982670116 -9.9812176178 
-9.9771776273 -9.9981838694 -9.997697322 -9.9998379381 -9.9991144813 -9.9914556351 -9.9953980827 -9.9749801468 -9.9916170778 
-9.9822325801 -9.9850613879 -9.9644154414 -9.9655337015 -9.9993587565 -9.9998731844 -9.9991042617 -9.99906853 -9.9930133422 
-9.9996978432 -9.9221920731 -9.9966174761 -9.9998414979 -9.9843069731 -9.97997896 -9.9798210357 -9.999834072 -9.9994046901 
-9.9981820592 -9.9995184434 -9.9946472837 -9.9093921263 -9.951187867 -9.9158384137 -9.9819786256 -9.9738340209 -9.9976657725 
-9.9726412505 -9.988300831 -9.9993717357 -9.9995287045 -9.9995022093 -9.95942578 -9.9855989522 -9.9719255834 -9.9548651322 
-9.8541346005 -9.9213471642 -9.9249427121 -9.8560404403 -9.9964602711 -9.9902948807 -9.9906583892 -9.9879261959 -9.9562458408 
-9.9675963481 -9.9839049981 -9.9542761479 -9.1662805964 -9.984330748 -9.9952483942 -9.999119323 -9.9876763437 -9.9804905267 
-9.6135042115 -9.9919807261 -9.9891592938 -9.9824227206 -9.9794190994 -9.9785304812 -9.9800252934 -9.7001816465 -9.5525003082 
-9.5426688571 -9.5874788266 -9.8920041057 -9.8421643274 -9.9547136045 -9.8575906688 -9.8504336799 -8.9950971542 -9.9730170123 
-9.7860773965 -9.8589298115 -9.5943412017 -9.8652713431 -9.7403819661 -9.8474819621 -9.941436861 -9.9231997264 -9.9209099786 
-9.9745997672 -9.9953657039 -9.9710685908 -9.882657242 -9.9224740226 -9.9738311046 -9.9407922078 -9.9590956295 -9.8829011693 
-9.937116903 -9.938266369 -9.9399423079 -9.9980494351 -9.9359999349 -9.9395157356 -9.95835286 -9.9741994515 -9.9406099275 
-9.9417527485 -9.845852682 -9.8767909957 -9.7039147224 -9.6995096276 -9.9570141831 -9.9197365067 -9.9977670149 -9.9526190733 
-9.9967067518 -9.7749130838 -9.7732548155 -9.6954186867 -9.8072699322 -8.9429592297 -9.0006699215 -9.99651201 -9.7357552667 
-9.4190586328 -9.6946340113 -9.9938155286 -9.0301392268 -9.7543999742 -9.873181042 -9.9193328677 -9.0086665208 -9.7905428163 
-9.721012762 -9.5904871876 -9.9837469857 -9.5413666955 -9.7631170876 -9.8986954099 -9.8880635795 -9.9237998659 -9.5561750303 
-9.8503981675 -9.7286043652 -9.9839752018 -9.8608935621 -9.9279425375 -9.9043886358 -9.9209506216 -9.8672669097 -9.9149270907 
-9.9112805969 -9.9340827127 -9.9749023905 -9.9436679657 -9.9232319289 -9.9159173772 -9.989270553 -9.9119059887 -8.6734569037 
-9.8521314471 -9.8301415556 -9.8338182423 -9.9278317703 -9.9477705685 -9.9224343409 -9.9555005732 -9.6707547245 -9.9598959432 
-9.9740205966 -9.9844554265 -9.9882020221 -9.8048467135 -9.9031104433 -9.866272894 -9.9687336674 -9.9775158654 -9.9725138811 
-9.984335234 -9.9972860009 -9.9456917462 -9.9996956045 -9.9992452746 -9.9991896155 -9.9996479347 -9.9999368819 -9.9997411114 
-9.999526038 -9.9978727557 -9.9941603356 -9.9980068482 -9.9987624239 -9.9994311713 -9.9971850687 -9.9982883851 -9.9997428484 
-9.9998894813 -9.9973376578 -9.9997396961 -9.9965876197 -9.9925189261 -9.9920476142 -9.9930410064 -9.9968612355 -9.9963069447 
-9.9997371371 -9.9966579006 -9.9999259821 -9.9999358269 -9.9990192816 -9.9999647287 -9.9971274423 -9.9741095147 -9.9599046777 
-9.9780765285 -9.9676832391 -9.9200727698 -9.9467753741 -9.9540529616 -9.9902504438 -9.9990646369 -9.9960665198 -9.9969637067 
9.740263426 9.9892752755 9.7181741167 9.9660483454 9.6989881347 7.6128387616 6.6358043772 6.0751119154 5.9530317797 
8.4269087987 9.9818926278 9.9823111004 9.9781124963 9.2798751973 9.442801309 9.4517461592 9.6763521673 9.9395991524 
9.8418145563 9.6792673544 9.2756074686 9.9718968973 9.0459175181 9.9855700643 7.0981170588 9.8524233218 9.5499232245 
9.9733063841 9.9995487253 9.9658430794 9.9542866117 9.9635624316 9.7616182716 9.953121605 9.9806237675 9.8840454087 
9.9590758638 9.7493823091 9.9877833338 9.9670103253 9.8417727746 9.8481263796 9.8354995478 9.8842431922 9.9995387954 
9.9672250911 9.9595669323 9.9540452213 9.8957662533 9.9892899273 9.7811506702 9.9072678434 9.2996389457 9.7014383848 
9.2771566397 8.0419527037 5.9598596737 9.4880354703 3.9145584666 9.8954146675 9.9330448806 9.8882827117 9.8717933453 
7.5713107893 9.9449161057 8.8207439343 6.7890655222 9.1740047463 9.946965048 9.7696039997 9.1535909701 9.9714688352 
9.9769052292 9.9639903845 9.8200145505 9.8235438603 9.9978458237 9.8636855766 9.9807884051 9.6426468125 9.5932779146 
9.6043671553 9.8722934108 9.8388567431 5.785471427 9.8411581566 9.9705381655 9.9831512576 9.9794210863 9.2765342321 
8.981621914 9.496970991 9.8753450308 6.7662618711 9.8850968701 9.7090685734 9.9581298778 9.518969644 9.4352686998 
9.9994614453 9.9889637729 9.9936827471 9.9958912478 9.9165069213 9.9565056793 9.9559209744 9.9723068304 9.6291893649 
9.9849034144 9.9972642717 9.9900090702 9.9858759919 9.9970954672 9.9972148721 9.9867687531 9.9968306739 9.9574203636 
9.9532513667 9.9551131169 9.9455147943 9.990640993 9.9903356597 9.998180435 9.996272458 9.9779374046 9.8837171961 
9.9840333454 9.9762589646 9.2606555647 9.6116885554 9.7386514648 9.5089792148 9.8639552737 9.2722048378 9.9474997602 
9.9471336297 9.6885325839 9.7899671383 9.2666499566 9.6270476736 9.4056364448 9.8872805515 9.6826287108 9.9628809053 
9.96388226 9.9995377574 9.9481622419 9.9467213214 9.9854038017 9.9445468353 9.9714726973 9.8481212711 9.9110523432 
9.9882371492 9.9355136654 9.9767740536 8.4682561502 9.6836771094 9.903063915 9.9241195739 9.9874089982 9.9097636871 
9.9315096949 9.6838685087 9.0297474823 9.8218654054 9.787701154 9.420004789 9.8876958858 9.7430848326 9.3613109425 