# vtk DataFile Version 5.1
vtk output
ASCII
DATASET POLYDATA
POINTS 1244 float
0.112078 0.0653517 0.0184035 0.128281 0.00780984 9.74517 0.0411544 9.91058 -0.0192804 
0.0530631 9.77214 9.63129 9.75637 0.130297 0.109284 9.69775 0.00632582 9.66461 
9.71633 9.83319 -0.000549933 9.70271 9.9721 10.0719 -0.125063 -0.0173802 0.886493 
-0.0601973 -0.0672053 1.88048 -0.233133 -0.198324 2.88881 0.0149032 0.0535503 3.93485 
-0.274409 -0.289014 4.96387 -0.144299 -0.0844906 5.99313 -0.00498037 -0.0207299 7.00854 
-0.17119 -0.210242 8.03063 -0.149558 -0.164764 8.92771 -0.12959 0.769334 -0.0528127 
-0.048565 1.89857 -0.0700306 0.0299086 2.94701 -0.027645 0.102984 3.95007 0.151076 
0.0239572 4.99858 0.0353514 0.0383308 6.05588 0.0899609 0.0447802 7.07958 0.0936262 
0.0128727 7.98905 -0.0859869 -0.289583 8.9931 -0.304563 -0.182986 10.0537 0.928052 
-0.265779 9.91626 1.90035 -0.299807 9.97197 2.91241 -0.0543041 9.67179 3.9768 
-0.211729 9.77149 4.94833 -0.106666 9.76711 5.98078 -0.0945392 9.79751 7.03098 
-0.151304 9.87973 8.01941 -0.167614 9.93964 8.8814 -0.0448927 0.913478 9.77918 
-0.165942 1.97316 9.87743 0.0585914 3.00491 9.75196 -0.0106118 3.95073 9.75978 
-0.0776536 4.93372 9.92527 0.0970597 5.9961 9.69222 0.0374291 6.99506 9.74431 
-0.0597499 8.01549 9.94252 -0.0795782 8.99426 9.84755 10.0103 -0.180679 0.898953 
9.8698 -0.187458 1.88908 9.7637 -0.0394047 2.96407 10.0827 -0.388044 4.06462 
9.7292 -0.138738 4.93698 9.86088 -0.215709 6.01663 9.83347 -0.198583 7.01732 
9.80539 -0.123018 8.00486 9.9007 -0.201182 8.94042 10.0247 0.887964 -0.229982 
9.82841 2.04907 -0.0819808 9.76785 2.97746 -0.0655665 9.82251 3.96068 -0.276346 
9.67198 4.93865 0.0125344 9.90283 5.9765 -0.214889 9.72112 6.92764 0.0871673 
10.0266 7.96646 -0.229014 9.85841 8.98514 -0.0643336 9.95676 9.92599 0.879379 
9.91448 9.93977 1.97256 9.81048 9.75131 2.8056 9.646 9.68218 3.89776 
9.81289 9.84861 4.92075 9.70899 9.65505 5.98289 9.9097 9.83875 7.07605 
9.93033 9.99289 8.04 9.84668 10.0044 9.17729 10.0886 0.889044 10.0945 
9.91661 2.00167 9.93571 9.72475 3.04875 9.65682 9.86319 4.00679 9.88764 
9.72973 5.04235 9.70226 9.81007 5.96816 9.72112 9.72448 6.99966 9.70955 
9.86933 7.88675 9.93442 9.91153 9.02611 10.0213 0.859719 -0.147825 -0.0862036 
1.99864 -0.124281 -0.0704755 2.9399 -0.131593 -0.134574 3.92177 0.0432031 0.117359 
4.99269 -0.137136 -0.00512315 6.04941 -0.0645711 0.108958 6.93151 -0.229716 -0.235597 
8.01722 -0.319595 -0.225916 8.98753 -0.00747261 -0.0214424 0.973561 -0.0913486 9.79553 
1.98366 -0.267099 9.85146 3.07567 0.0176249 9.81058 3.94721 -0.181544 9.7561 
4.99289 -0.0800782 9.78166 6.03141 0.0316666 9.68683 6.97169 0.0867195 9.75749 
7.91597 0.00824386 9.71071 8.93687 -0.343902 10.2423 0.816839 10.0259 -0.159475 
1.94753 9.98396 -0.0467078 2.92404 9.96864 -0.206191 3.93612 9.8064 0.0219872 
4.96121 9.90322 0.0250746 5.96619 9.98882 -0.10543 6.958 9.74197 -0.129456 
8.01625 10.0183 -0.157462 8.96385 9.85939 -0.0907895 0.926733 9.95222 9.77854 
1.98392 10.1048 9.93426 2.85097 9.64473 9.57225 3.91238 9.92364 9.7315 
4.9683 9.74172 9.60534 6.06677 9.90895 9.7258 6.9708 9.7235 9.72911 
7.99157 10.0381 9.75032 9.07651 10.0571 9.96805 -0.262362 0.350758 5.00431 
-0.272389 0.272478 1.86116 -0.210771 5.64977 1.9235 -0.268537 8.23817 3.45441 
-0.193545 8.36565 0.364107 -0.227794 5.64882 8.05203 -0.153135 8.36996 9.54732 
-0.267662 8.24011 6.56791 -0.352446 0.210554 8.21794 -0.0337815 2.89737 9.36037 
-0.256552 2.96642 0.437145 -0.139493 5.65035 4.99927 -0.147555 2.9852 3.46275 
-0.167338 2.9797 6.54329 -0.375612 0.306962 9.53619 -0.347354 0.296242 6.49346 
-0.299919 0.288443 3.47745 -0.215688 0.317211 0.453381 -0.232966 4.28563 8.78139 
-0.156199 5.59853 9.38266 -0.196467 7.00941 8.79042 -0.255915 6.97948 7.30739 
-0.332977 8.28501 8.08127 -0.330927 9.50277 8.87789 -0.487988 9.47374 7.33908 
-0.430686 9.41775 5.74272 -0.257933 4.31258 1.14446 -0.208462 5.62575 0.388374 
-0.190101 6.98205 2.688 -0.244973 6.98992 1.16783 -0.32525 8.22854 1.90106 
-0.396967 9.44174 4.26721 -0.266715 9.41374 2.62023 -0.286745 9.41168 1.12955 
-0.283089 8.21861 4.99588 -0.144582 6.98101 4.22431 -0.126903 5.65031 3.45731 
-0.125226 6.98599 5.77506 -0.141249 5.6494 6.53964 -0.179625 4.31733 2.68619 
-0.209493 2.97281 1.9176 -0.290948 1.62421 1.13855 -0.289055 1.66042 2.68208 
-0.278464 1.6554 4.22469 -0.196962 4.30772 7.3104 -0.201999 2.97833 8.0631 
-0.287943 1.65411 5.7681 -0.300884 1.67032 7.31971 -0.228808 1.64078 8.83373 
-0.139148 2.9782 5.00117 -0.133994 4.31542 5.77171 -0.108298 4.31561 4.22923 
-0.31662 0.40865 8.77869 -0.342934 0.234198 7.25347 -0.320991 0.26757 5.82785 
-0.286292 0.30343 4.21465 -0.239883 0.268573 2.64209 -0.290558 0.412567 1.10966 
-0.294866 3.61719 9.21355 0.0332461 4.38742 9.34249 -0.325262 4.97292 9.21603 
-0.302358 4.97174 8.40452 -0.245977 5.67441 8.71274 -0.236071 6.33355 8.43151 
-0.21362 6.31703 7.68949 -0.277381 6.98215 8.06696 -0.3048 7.70945 9.19561 
-0.35908 7.66074 8.45322 -0.376947 8.30177 8.83782 -0.329974 7.63861 7.69021 
-0.275425 7.64963 6.92828 -0.377498 8.25957 7.31412 -0.36153 8.87214 9.33984 
-0.181286 9.4475 9.49694 -0.304184 8.85044 6.97559 -0.391899 8.84085 6.18846 
-0.335104 9.38195 6.50218 -0.298412 9.492 8.21141 -0.313366 8.91122 7.73292 
-0.428308 8.90165 8.4748 -0.290892 7.04456 9.37541 -0.190887 6.35429 9.2239 
-0.193831 3.66877 0.737017 -0.0550559 4.28592 0.419237 -0.247694 4.97921 1.53213 
-0.216557 4.98836 0.743735 -0.22629 5.63936 1.16082 -0.191969 6.32097 2.29984 
-0.208907 6.32051 1.55123 -0.257732 6.97676 1.92888 -0.239184 7.63373 3.09173 
-0.261353 7.61832 2.30417 -0.313253 8.2544 2.70166 -0.248383 7.61684 1.54166 
-0.241511 7.67504 0.755106 -0.26689 8.28167 1.12084 -0.27937 8.82211 3.77952 
-0.332696 8.87128 3.07379 -0.304347 9.46266 3.5334 -0.417395 8.8005 0.76276 
-0.299645 9.49726 0.370697 -0.235516 9.52256 1.75052 -0.379332 8.897 1.53724 
-0.384505 8.82471 2.27671 -0.306676 6.96203 0.296931 -0.210772 6.29978 0.744655 
-0.400449 9.32899 5.0332 -0.397494 8.76406 4.58916 -0.267356 8.25401 4.2141 
-0.279167 8.74694 5.39123 -0.386482 8.23583 5.77273 -0.212191 7.64887 3.83822 
-0.130759 6.98522 3.45736 -0.1395 6.3164 3.06746 -0.198003 5.65313 2.69037 
-0.167483 6.31629 3.84323 -0.106217 6.31715 4.61414 -0.11197 5.65062 4.22906 
-0.273041 7.63195 6.15519 -0.19011 6.98412 6.53794 -0.110224 6.32015 5.38467 
-0.162881 6.31625 6.15179 -0.0999259 5.64904 5.77047 -0.163381 6.31788 6.92729 
-0.187223 5.65359 7.30789 -0.190599 6.98055 4.99997 -0.230468 7.64632 5.39052 
-0.170295 7.6335 4.60887 -0.191817 4.98264 2.30256 -0.209399 4.31577 1.92001 
-0.272765 3.64998 1.53123 -0.230363 2.9788 1.15806 -0.193616 3.64869 2.30347 
-0.112088 3.65194 3.06867 -0.199983 2.98025 2.68116 -0.228083 2.28412 0.724095 
-0.254372 1.5932 0.394577 -0.268566 0.980333 0.770771 -0.317627 1.00117 1.51257 
-0.219015 2.31215 3.07377 -0.149556 2.30831 3.84687 -0.265343 1.65685 3.46374 
-0.388632 0.992864 2.29565 -0.345217 0.988882 3.08108 -0.37023 1.00989 3.82399 
-0.281725 0.998465 4.62156 -0.325415 1.65694 1.91305 -0.220891 2.31505 2.30434 
-0.281065 2.30259 1.54182 -0.209081 4.97623 7.68786 -0.25412 4.30232 8.06641 
-0.142891 3.64711 6.92922 -0.211684 3.64475 7.69812 -0.213568 2.98295 7.31669 
-0.180059 3.66348 8.41071 -0.262852 2.9617 8.7431 -0.173411 2.30897 6.15406 
-0.235715 2.31417 6.92107 -0.279146 1.67149 6.53838 -0.371291 1.00103 5.37305 
-0.423431 1.00967 6.13999 -0.287883 1.00575 6.91073 -0.363559 1.01211 7.69458 
-0.280743 2.25122 9.17989 -0.307287 1.6181 9.57338 -0.419922 1.05468 8.43023 
-0.338971 1.06757 9.19326 -0.342555 1.66512 8.07367 -0.325645 2.29862 8.43773 
-0.270294 2.31519 7.69367 -0.24936 1.64773 5.00517 -0.16718 2.30982 5.38913 
-0.166549 2.97969 5.76831 -0.148117 2.30497 4.61381 -0.138683 2.98422 4.23018 
-0.130353 3.64817 6.15503 -0.136914 4.31296 6.5415 -0.116099 4.98058 6.92316 
-0.144943 4.98189 6.1533 -0.118491 4.98278 5.38531 -0.119643 3.64852 3.84711 
-0.128149 4.31731 3.45776 -0.112869 4.98323 4.61455 -0.141749 4.98314 3.84382 
-0.141099 4.98323 3.06901 -0.121049 4.31555 5.00023 -0.0942276 3.64821 4.61472 
-0.114306 3.64746 5.38667 9.92825 0.298152 4.98887 10.1187 0.290098 1.90326 
9.92415 5.65159 1.92082 9.98728 8.24353 3.42972 9.91009 8.35571 0.38615 
9.93502 5.63971 8.06362 10.0115 8.29572 9.60203 9.82992 8.28416 6.53703 
10.1311 0.249642 8.0559 9.90395 2.92465 9.37869 9.93198 2.95242 0.502186 
9.8371 5.65179 5.0001 9.86561 2.97787 3.45557 9.84512 2.97802 6.54353 
9.97773 0.284503 9.37131 9.98297 0.323685 6.60008 9.94369 0.290018 3.47002 
9.91352 0.403988 0.387667 9.90752 4.35118 8.68663 9.81386 5.56037 9.32943 
10.0011 7.00914 8.68215 9.90566 6.98011 7.30662 9.94215 8.22742 8.03757 
10.0184 9.34292 8.6505 10.0815 9.4598 7.31031 9.67608 9.39398 5.8902 
9.9196 4.3087 1.17767 9.86063 5.6363 0.418245 9.90453 6.98227 2.68777 
10.0102 6.99521 1.16571 10.0138 8.26454 1.92084 9.92972 9.31723 4.25402 
9.91353 9.35347 2.61802 10.0328 9.35186 1.11081 9.90536 8.24552 4.99726 
9.85912 6.98441 4.227 9.85817 5.65166 3.45623 9.85926 6.98742 5.7717 
9.85681 5.65185 6.54367 9.88378 4.31482 2.68768 9.94782 2.97377 1.92549 
10.0436 1.66267 1.15152 9.96496 1.65686 2.69329 9.89545 1.6486 4.22918 
9.84558 4.31511 7.31305 9.93942 2.97417 8.02675 9.9401 1.64949 5.77515 
9.97636 1.65203 7.31035 10.1125 1.63901 8.76432 9.84429 2.97786 4.99985 
9.83911 4.31491 5.77188 9.84426 4.31493 4.22821 10.1559 0.379016 8.78789 
9.95481 0.27091 7.22993 9.9791 0.30818 5.78282 9.95365 0.311501 4.24277 
10.0225 0.318512 2.73436 10.0652 0.464394 1.11794 9.88564 3.61348 9.16838 
9.95899 4.32945 9.34494 9.84935 5.01173 9.21701 9.91565 4.99456 8.43775 
10.0383 5.6034 8.75581 9.86945 6.2824 8.41595 9.92914 6.31671 7.68877 
9.96953 6.98199 8.02685 9.9387 7.68038 9.21247 9.92708 7.64288 8.41686 
9.96223 8.19215 8.82535 9.95825 7.63762 7.68864 9.8974 7.62927 6.9189 
9.95259 8.26809 7.29533 9.99355 8.82771 9.19073 10.0119 9.49128 9.45906 
9.94617 8.80227 6.90969 10.0218 8.78435 6.13846 9.91254 9.39438 6.48814 
[...]
CELL_DATA 2484
SCALARS scalars double
LOOKUP_TABLE default
-4.1125382523 -7.3325700012 -2.4139572074 -3.0520848112 -3.8853782832 -7.7565000905 -6.0744210384 -4.5438124442 -3.6849215484 
-6.8408304807 0.16969010763 -7.8169813165 -4.8786796842 -0.51584872696 -1.1025673021 -5.2839698649 -3.3167457143 -5.590221903 
-3.3120740302 -3.4043482614 -5.2817980821 -5.0230135667 0.23120048453 2.7936135753 -0.72732172964 3.140192972 -1.8707497687 
3.4082551565 -1.15721836 2.1934661838 0.93450040121 0.9224621479 -3.9303391614 -0.42428386174 1.6223682733 -4.5972969055 
0.047357947991 -0.0080577115109 -0.79699392043 -0.79415507018 -1.9996567997 0.61951364379 0.070805647378 -0.74247995524 -0.69832236433 
-0.40464451884 -0.74492227227 -1.1976160396 0.18745032677 -0.95662843109 -1.835988464 -0.99776338797 -1.434778452 2.2731786324 
0.02843644657 1.520881313 4.5220740883 3.3732747904 2.9314227411 -1.3331644395 -1.9487183798 0.30877692774 0.40358782183 
7.2868604127 6.269374373 5.0543650137 6.7165082747 3.3653512829 -2.8904091824 3.5006326746 4.2683961908 0.3870841852 
0.6222965122 1.1126075282 1.0680288913 -1.1817588193 -2.5078751262 -0.3957814593 -0.54528253703 1.9288937577 -1.5058982645 
1.4837612203 0.67142687287 -0.62635747933 -1.948063701 0.28658933999 0.032314755244 -0.18019272213 0.38832703344 2.3567931322 
0.81354779214 -2.148547049 -1.0895336237 -0.79010238888 0.58314070022 1.5426312553 0.76107866126 -1.1241455665 -0.42192253287 
0.38012879278 0.43483563272 -0.0016621966298 0.10267054077 0.41859874795 -0.68546898763 -1.6610054137 -0.98255659276 2.3031664273 
0.15325375564 -0.49431454067 -0.63971858171 -0.87097030167 -0.93441419409 -0.82708613146 -0.9241841132 -0.99863640684 -0.0021962552616 
-0.78079473472 0.15485444026 -0.34982997648 -1.1501447734 0.045110672734 -0.57668516619 0.04310462784 -0.5811058251 -0.87398503913 
0.83063703279 -0.10204041093 7.38663902 -0.38740266225 3.8462263489 8.086717872 1.8715214174 -3.2348044299 4.0730359695 
1.1183630533 1.7461315889 1.7044074991 4.4852405557 -0.41983357811 -0.60177413073 1.9527356303 -0.42858289954 -3.5755687888 
-1.248759746 -2.2891755016 1.6522372481 -1.1039764481 -0.66231645711 -0.72942872787 -0.89106484585 2.0163104405 2.0986361023 
2.1929547755 0.46667009558 2.1973586942 -1.885920752 -2.9676642747 -0.5172006427 0.088525688845 0.13962145643 0.24549124168 
2.1728189731 -0.94183846921 0.062603825983 -3.169757808 -1.2089612094 3.7675694874 -0.69982715531 6.4806360092 4.0058419147 
-0.19642434583 -2.2645715995 -1.3746372837 -1.5853776029 1.0721464569 -1.1012725865 0.944544227 -0.99797299893 -2.1280920411 
-0.014850381512 -1.171454171 -0.70895883788 -1.2212528961 -1.1129152162 -1.4353163224 -0.37067354463 0.18717034034 0.35250231158 
0.49002198006 -0.11080838056 -0.71960704746 0.2923899752 -0.37163724388 -0.39968401053 0.4459312692 -0.31861139823 0.34053425491 
0.11107997429 -1.75126451 -0.77240756358 -1.2706670596 0.17617035723 0.14142979714 -0.63447871111 -0.54752337778 -1.0118765254 
0.015970669382 -0.083849984588 -0.018701517515 -0.32755703737 -0.8972110032 0.083620151914 -0.40413491297 0.46742578472 -0.71834525691 
-0.92105135621 -1.2349983858 -1.9005548078 -0.91488713507 -1.7664879005 -2.1988179132 -0.70344510102 -1.7159083228 -0.92930266202 
-1.2230755143 -1.4157251364 -0.044328078482 -1.0876934271 -0.14823425782 0.12732018608 -0.21037633814 0.040735881617 -0.15237774126 
-0.3592317124 0.74085359891 -0.77844820738 -0.077758155025 -0.39900313831 0.16468536247 0.9190093353 0.6900561916 -0.34785860817 
-0.013190604864 0.58559166623 0.35084904148 0.84609284353 0.62536037819 -1.1128049109 1.7798689677 0.030596864733 -0.26844121599 
-0.55371006244 -0.0072814076112 -0.068335490234 0.60850870461 0.53797883538 0.011532904944 -0.68552470154 0.88600073069 1.8441951685 
1.2308163745 1.1585910245 -1.8262926155 -1.0313933683 -1.7629851896 0.71994333041 -1.0674961592 -0.11570747357 -0.57466947505 
-0.82087034586 1.509145166 1.0136056531 1.3967175717 -1.0496772779 1.2108614303 0.15689171007 0.43003704251 1.0517684533 
0.67350998383 0.24501128997 0.29972362234 0.53611810421 0.90571712608 -0.26229454488 0.37618315931 0.62805452541 0.41997344957 
1.29816164 1.1196006396 0.42114991508 0.24384860081 -0.85642233532 -0.062488383889 -0.30037456386 0.71060164894 -0.060639654073 
0.54023299095 0.0015604423149 0.75964328675 -2.6747745553 0.51091093621 0.096245747685 -1.0070463664 -0.22032243546 -0.90256567164 
0.56138832148 1.6800343066 0.83742628352 1.1525382214 1.6710792449 -1.1898799661 -1.2261667526 -1.0906813192 0.39832029928 
0.76486159183 -0.2062837349 0.28219656396 -0.19253410081 -0.024383368075 2.0929973607 1.0944260578 2.2873387572 -0.24339808365 
-1.4496643625 1.8321655032 2.4682147158 -1.0425809358 0.13861137426 -1.0065204726 2.5968709703 1.2641441418 -0.61283407459 
-1.1741813314 -2.1864436772 2.1076557558 0.63767768892 0.78800807214 -1.1429856891 2.4378488635 1.3271745706 0.64655256325 
0.73176414668 0.93602741634 0.68361522193 0.59471439848 1.4088057514 0.78806004399 -0.57517280682 0.68225248962 -0.98934072563 
1.5684053998 0.27626686499 1.1881102843 1.7674691553 0.0964449297 0.21164716118 0.055488060497 1.9519550945 0.13606323518 
0.095225049442 0.14983175127 0.27548755044 1.7443424298 1.521978128 1.3752052094 0.45902922841 -0.36507319618 -0.076485623624 
-0.0045348364829 0.499350843 0.016892297518 -0.71386004067 -0.35767195351 0.032870849975 0.36561012776 -0.017899929102 0.4766191013 
-0.16122319951 -0.14229571904 0.75089763494 0.097423857365 0.47525733606 0.02263076972 -0.62888062634 -0.18412668312 -0.28443539898 
-0.19281805363 0.33428417897 0.22966109528 0.19774982726 -0.32457556213 -0.18897513269 -0.47364221215 0.21761656431 0.19454509534 
-0.35266102077 -0.19933041016 -0.35666452493 0.0269876863 0.13512757289 0.080406777689 -0.019581628858 0.35330076094 0.66848747015 
0.47685761888 -0.17437919629 0.57624333883 0.54653100367 0.66103923632 0.51983842368 -0.19793563176 -0.30618525302 -0.25135940273 
-6.4219520271 -4.4750939403 -3.9379502258 -3.4268926623 -6.3378831597 -2.5924940056 -2.5223587029 -2.2031836829 -2.7533962537 
-2.7025559692 -4.1679478616 1.8571258016 -0.6490204822 -5.5597881154 -5.122516419 -4.6165708857 -0.14697432355 -1.6214878043 
-3.846634567 -0.5730540008 -4.617853921 0.81606746184 -4.0877387436 3.2339034336 -2.5434867917 -0.81954152714 0.3092385027 
-1.2566799486 0.20028173266 -0.14199564359 -1.1792901273 -2.4042919636 1.4500699743 1.7027198223 0.13943127229 1.9530687468 
0.55311845955 -1.6368132898 -0.15601926134 -0.99234255745 1.0794995416 -0.8496631619 -0.43526598981 -0.54980189336 -0.3414709941 
0.18361220782 0.087066793394 -0.39920284908 0.019743854506 -0.28379085601 0.94460335859 0.39069787761 0.92312152762 -0.33396882888 
-0.60018236375 -0.74171753634 3.8123085125 2.8402265254 1.8772744816 -2.8581802685 -0.82783605242 3.531133994 1.2302782138 
3.7060813986 0.13355080564 2.9776586278 2.9002916778 1.4633895549 -1.6581025986 2.2897704667 1.4551931136 -1.0441293054 
-0.80914946262 -0.34828866154 -1.2997380915 0.71972533776 -0.13813864135 0.046771967671 -0.061989670696 -1.5135386277 -0.85610427565 
-0.93014875881 -2.1121374441 -0.040356040915 -2.5349546973 -0.89632729872 1.7423971304 -1.9132881733 1.1879477622 -0.88059372837 
-2.2566550424 0.45735029861 1.3863530076 0.78251240407 -0.086861165031 -1.1312535236 -0.77323401534 2.2222927815 -1.2136482781 
0.019429057594 0.019986696398 -0.36967651613 -0.75637834428 -2.2889856942 2.0891742935 -1.0500181415 0.5952938148 0.934074075 
-0.24074209228 -0.18594411128 -0.30098265871 -0.22714407823 -0.51874165699 -0.97200998103 -0.18657763815 -0.1909494129 -0.27734025556 
-0.089528716393 1.6646298938 0.49216609161 -0.44976020011 -0.27465920294 -0.61274850908 -0.46277732686 0.011377257734 -1.8188367826 
2.4361838002 -0.68506478498 4.5962825221 2.983520128 6.4070948567 6.7438821863 1.5391994652 -1.7670140058 1.755391001 
-0.69373991924 1.3415436809 1.4563536578 5.3534243047 1.9684796872 1.5850734842 0.13519852966 1.7565882785 -3.0492766774 
1.230339128 -0.58481832082 3.5647913394 -2.1954331016 -2.2092707023 -2.7002903451 -0.051698544388 2.7453698452 -1.1955105727 
-0.20121994264 -1.61663738 -1.6997105717 -3.6271100265 0.69871318307 -0.44289846856 -1.4337871879 -0.23536317673 -0.16008945683 
-1.8595967214 0.72622592726 3.0399864845 1.4751330782 2.2809156898 -0.3296208127 1.3756672046 -1.4896358815 -0.22732432294 
1.7126130253 -3.4009231955 -1.179911819 4.9243104648 -2.6784716442 -3.0516215712 -2.7397883132 -3.0434026562 5.1286084883 
3.8168905895 5.7298177165 -1.5441399112 -0.31557187928 -0.18141911019 -0.35059870354 -0.15697662089 -0.22353464369 -0.013792750576 
-0.19502153739 -0.24852386437 0.078156463198 -0.12688361115 -0.12357432596 0.034955786019 -0.34317090004 -0.24029628668 -0.19162424698 
0.83219694118 -0.13395571807 -0.18111362907 -0.28379009362 -0.11113398279 -0.10457904863 -0.1018187009 -0.13311437457 -0.04719583849 
-0.13411241132 -0.33820086285 -0.37925228997 -0.14405291625 -0.150400027 -0.091474531176 0.0017947327232 -0.12734140455 -0.15831722297 
-0.19993198357 -0.15415864965 -0.13242234873 0.24399345573 -0.47133714239 -0.21458359482 -0.1719209655 -0.9539860008 -1.4167658248 
-1.153877365 -0.67143636841 -0.11468412335 -0.10319609399 -0.13429209248 0.01019411815 -0.40307877323 0.027312717069 -0.044123911409 
-0.2867242796 1.3356985384 0.94507118891 1.8850995829 -0.004866244618 0.28732490255 0.12130790211 0.05999538241 0.55974671095 
-0.064675673606 0.019759616821 -0.17172255536 0.67420917688 0.42343056594 -0.22874910006 0.46232327309 -1.0453182923 0.082655705766 
1.8300149713 1.491298705 0.037636092044 1.7213382283 0.3083764368 -1.410221525 1.2077476978 0.74755535565 0.51081162 
0.58867722707 0.37565702764 0.44087966782 0.66707178661 0.55228516425 1.1916196944 -0.763968226 -0.04127950312 -0.26735086264 
-0.39890282596 1.4413933109 -0.09132246894 0.72072623351 1.573756187 0.76820215076 -0.85203727621 -0.17917356851 0.7258475787 
0.28903000434 0.31920403468 0.45036206234 1.3082590671 -0.26176957888 -0.24759714557 -1.0209822007 0.095157919826 0.92969849469 
0.77520449253 0.9316390112 -0.61061977028 0.11471995056 -0.065406758371 0.33679658182 0.45959023714 0.34762836493 0.25090946738 
0.33696086369 0.44093322039 0.54507342939 1.0389094769 1.9264371063 0.10138503388 0.81682982176 0.31935288657 0.26554838326 
0.75162734529 0.83322483733 0.79655241671 0.68310062817 0.11436487209 0.29831218419 0.27666723407 0.45412599855 0.78052003198 
-0.61888279055 0.059097870742 -0.98170168011 -0.10913764207 0.7732552541 0.33055099513 0.68555070335 2.7262498762 -3.429765574 
1.12307992 -3.7361813153 -2.0342235149 2.1350909512 1.1346285716 2.7760996843 -0.17281553292 0.18478869786 1.474304144 
-5.0374320973 2.6176016752 -1.1582859535 0.72645206132 -0.028688113944 0.4785698962 4.0063268096 0.063144428036 0.30442299858 
0.71693982519 0.47150568349 0.50278795087 0.44827240804 0.57442157485 0.70162449896 0.89185873245 0.5949476243 -0.14617384631 
0.13945223561 0.64015737386 0.46880982986 0.88792413719 0.64339668828 0.53100000756 0.63023954531 0.44070951104 0.16601484943 
0.31237539474 0.30850608067 0.33358754357 0.68528949069 0.70277822097 0.61805016344 -0.015688221862 0.058669696474 0.026416929912 
0.027848871384 -0.31944806513 -0.47988898354 -0.12360638375 -0.15935340859 -0.026599973008 -0.086077517618 -0.035529237313 -0.030882224357 
-0.078764067867 -0.036184849648 -0.20957731835 -0.10822979786 0.074193091554 0.0010593875251 -0.060917071084 -0.0086356243331 -0.00068670907608 
0.047086929116 0.05227191868 0.14921106904 -0.056392225519 0.066651945797 -0.02434079465 0.09598359896 0.056622844465 -0.024356370916 
0.044710474881 -0.011146941783 0.017365470679 0.033833132576 0.013469890486 -0.0040002704404 0.02919455406 0.042162511708 0.080154778648 
-0.00822359038 0.017928203058 0.067094042308 -0.021429948766 -0.020121777176 0.088337951684 -0.021057606975 -0.022551571128 0.0058475953333 
-1.9393310399 -5.4459248373 -8.734080562 -8.8852147076 -2.4592006416 -8.7368657414 -7.4872942389 -8.5671034206 -8.7536632712 
-9.852294683 -8.6538172166 -9.9608483156 -8.9590229267 -7.3865357179 -8.1702386608 -8.3531169463 -9.716824793 -7.7699520133 
-7.495764251 -9.773054288 -8.3930278859 -9.5962682822 -8.7241590226 -9.0765390274 -6.8841929677 -9.9938047393 -9.2996456565 
-8.6120793677 -9.9969233534 -9.9775146435 -9.966542138 -9.9834190419 -9.9885776885 -8.6115636329 -9.764089836 -9.735208161 
-9.9194195759 -9.6103855199 -9.9425755922 -9.9071866954 -9.9041397777 -9.7308649882 -9.949789717 -9.9815598054 -9.9980405448 
-9.8384736364 -9.8612960598 -9.81696059 -9.7967880687 -9.9810944009 -9.6665233541 -9.7974741168 -9.601915163 -9.6777659264 
-9.8428731473 -9.1363745875 -3.8051886724 -8.9568777021 -2.488525299 -9.7163998321 -9.7126591245 -9.8313266828 -9.8147165982 
-6.2186107678 -8.8976502929 -8.8044862286 -6.1623204265 -8.4576522296 -9.8569425321 -8.9690845065 -8.5447076938 -9.9183785829 
-9.9846685802 -9.9882745369 -9.673375919 -9.9273068145 -9.7456712787 -9.8717099005 -9.9378865034 -9.9345376416 -9.8734508914 
-9.8793411916 -9.8936033282 -9.3653799528 -8.8552112883 -9.4363087476 -9.964806589 -9.9385238628 -9.9237668776 -9.8033966242 
-9.9818334655 -9.9794163248 -9.2485639582 -8.5212022372 -9.7723791608 -9.7763544622 -9.9026885735 -9.7184971049 -9.6580608928 
-9.958639558 -9.9546025991 -9.8450435349 -9.966269616 -9.205126601 -9.7884056685 -9.7890802086 -9.8561187428 -9.7339198365 
-9.9813373442 -9.9555190305 -9.9865469517 -9.9818015375 -9.9382141304 -9.903764613 -9.9148690326 -9.8927414114 -9.7505725687 
-9.955873242 -9.8657996665 -9.8288195393 -9.9439339489 -9.9927106669 -9.9426722104 -9.9928949425 -9.941272177 -9.9071496101 
-9.9733130492 -9.8965175057 -7.8948022556 -9.7649614447 -7.6544285994 -6.3549645195 -9.9810963013 -7.812506047 -9.9145359257 
-9.8551060151 -9.4791174035 -9.2034473146 -7.0828087082 -9.0368660639 -9.0329724098 -9.9475782283 -9.5829727409 -9.9803088745 
-9.9998574136 -9.9876767401 -9.9788525695 -9.9882346197 -9.9914713753 -9.9773049714 -9.9943815814 -9.9817081346 -9.9481537979 
-9.9852260527 -9.7856197759 -9.6192636381 -9.6097963562 -9.2751944335 -9.992123289 -9.9057006678 -9.9560688387 -9.9756232033 
-8.9944440118 -9.9574793072 -9.2197575494 -9.7406656668 -9.6275645976 -9.7817208089 -9.9272569007 -8.921266191 -9.8510164436 
-9.9716039428 -9.8840547129 -9.9033930858 -9.9348932918 -9.8482421109 -9.6174700405 -9.6996421095 -9.8685986439 -9.7895505088 
-9.8458237675 -9.8003837015 -9.916719713 -9.9557195872 -9.9586836934 -9.9764747996 -9.9548849164 -9.9786888032 -9.9961732189 
-9.9637597085 -9.9770211597 -9.9604417554 -9.9964821918 -9.9848606631 -9.9558204318 -9.9439622035 -9.9941986504 -9.9426602712 
-9.993239908 -9.9199340663 -9.9322128654 -9.9277240727 -9.9995742412 -9.9945035486 -9.9988496344 -9.999092011 -9.9615598939 
-9.9761323769 -9.9815230547 -9.9910783352 -9.9965935449 -9.9387848438 -9.9995184116 -9.997438454 -9.9938652929 -9.9999460848 
-9.9922784585 -9.9937578804 -9.9395769329 -9.9963752991 -9.933860742 -9.9527214985 -9.9413280419 -9.9854813864 -9.9322536456 
-9.9808991275 -9.9444842853 -9.9338431876 -9.9892596353 -9.9468212997 -9.9922223997 -9.9534583718 -9.9758452681 -9.9919340006 
-9.9521279569 -9.9543984042 -9.9710976823 -9.9605272579 -9.9756887021 -9.9793970884 -9.9740978321 -9.9718958393 -9.9842459381 
-9.9737285648 -9.952750193 -9.9980146751 -9.9450237756 -9.9653907137 -9.9909496392 -9.9510276511 -9.8003601378 -9.7155613061 
-9.7941329828 -9.7786981967 -9.9581712991 -9.4469923203 -9.9865705296 -9.4103889513 -9.3583157223 -9.6472544841 -9.7365674106 
-9.7051919064 -9.8411119513 -9.5662818854 -9.8693455012 -9.5833862086 -9.3350868549 -9.7205252798 -9.9635113735 -9.8289577387 
-9.7632512059 -9.3645162712 -9.9039615797 -9.6746234954 -9.8710381451 -9.7497034769 -9.8486081348 -9.7925466263 -9.6445111862 
-9.9811315948 -9.9790587801 -9.9695880382 -9.9892702678 -9.9875788885 -9.9999761902 -9.9995734251 -9.985395099 -9.9245712252 
-9.7924413703 -9.8573858881 -9.9660284498 -9.9427542945 -9.996573173 -9.9594185995 -9.9685870268 -9.9710995933 -9.9592549155 
-9.9661804895 -9.9866179384 -9.7050888777 -9.3773405504 -9.5872359834 -9.9575142899 -9.9905643519 -9.9449644633 -9.9697488073 
-9.9433037112 -9.8858014733 -9.9350706382 -9.876948544 -9.5999685479 -9.9701657406 -9.7865128634 -9.9895297215 -9.7632573101 
-9.2404874954 -9.1017319037 -9.4772328841 -9.8120738062 -9.818498082 -9.7678179568 -9.8898267549 -6.8953053403 -9.6235448768 
-7.9962500946 -7.6036017132 -9.7906008646 -9.3265122146 -9.9977393569 -9.7608596073 -9.9998458557 -9.863605245 -9.7922751898 
-5.685501937 -9.9999265771 -9.734664392 -9.8044564386 -9.7783581769 -9.5738592112 -9.4819122484 -9.7814564553 -9.8121205581 
-9.97113864 -9.9538597882 -9.9438583092 -9.9592458229 -9.9524760254 -9.9479379976 -9.7012488542 -9.9445622219 -9.9614176214 
-9.6639089598 -9.6740722014 -9.8206673335 -9.9850252094 -9.9198163898 -9.7962774101 -9.8324693401 -9.8874999326 -9.8651428381 
-9.9985746175 -9.9248784169 -9.8104472356 -9.9515379154 -9.9573015505 -9.9442153794 -9.9895948577 -9.9986713377 -9.9993194357 
-9.9976355431 -9.9959739908 -9.9835674927 -9.9757940762 -9.9900753768 -9.9996564272 -9.9997542443 -9.9950253071 -9.9998026816 
-9.9969020641 -9.999282076 -9.9987153801 -9.9981886246 -9.9879163246 -9.9957454701 -9.9904142535 -9.9912172534 -9.9970662369 
-9.9960524121 -9.9940380866 -9.9993388708 -9.9874316429 -9.9986827127 -9.9806418835 -9.9841314564 -9.9926961117 -9.9899510044 
-9.9952359853 -9.9914867477 -9.9951814214 -9.9982571912 -9.9999205172 -9.9999629719 -9.9964348393 -9.9830793345 -9.9769333676 
-9.9825094613 -9.9996009839 -9.9994140444 -9.9775284394 -9.9980516703 -9.9975997505 -9.9997928002 -9.9964945668 -9.998789526 
9.2591231452 9.6095358962 9.6378004081 9.6662574256 8.4392788002 9.6257203302 7.2685102595 6.6135385327 8.2975553193 
9.8667989493 9.9964798894 8.0556107703 8.2346062191 7.9826711231 8.0439427478 9.4385042196 9.8292685267 9.5468106288 
9.5762095659 9.8304198347 9.521886285 9.4839362784 9.9691402977 9.3373160268 7.8556422836 9.5079981125 9.6220509256 
9.5262129518 9.9885535276 9.9703631094 9.9972693534 9.9966111919 9.7045431709 8.7095936619 9.2530182574 9.0416033896 
9.9829239166 9.6602865058 9.9682087588 9.9765558398 9.6869298983 9.3118909875 9.7833604862 9.4469381856 9.9739733879 
9.9547838821 9.9330851677 9.9335457617 9.949516118 9.9632451391 9.7308585882 9.9490199903 9.6868995349 9.6719347216 
9.4653202254 9.7187824069 8.7823520951 9.6480261228 8.5460267091 9.9680877571 9.9068623241 9.6891812916 9.7779784188 
8.8589380737 8.841007367 7.9935094104 8.4438738269 9.6449552196 9.9602044647 9.7993990781 9.6115078591 9.9936956168 
9.9864627658 9.9876763029 9.9955716371 9.8291411766 9.4701335134 9.9308808133 9.9224566685 9.9637501975 9.9600103235 
9.9233026081 9.4749184127 9.6348464557 3.8679818379 9.7338954019 9.9951402648 9.9761368903 9.9984765906 9.1900557595 
9.9775206839 9.9965887494 9.6998468525 6.7502267408 9.6108974103 8.379516553 9.9515631238 9.9642604089 9.9683782783 
9.8754502845 9.9955214605 9.7597924341 9.9830880968 9.3805965634 9.933997583 9.7560271862 9.875764194 9.836971567 
9.9914792781 9.9918117192 9.8679581494 9.9926341587 9.957662284 9.9658129168 9.9855295976 9.9647928691 9.8670908386 
9.9375088501 9.9788130148 9.8642416489 9.9861677304 9.8813317827 9.9599797552 9.9647914816 9.9584196484 9.9051796933 
9.9960348071 9.9888656969 7.425821418 9.9954327865 8.9495817486 7.1854393084 9.8783446997 9.8940632689 9.990521591 
9.8354430739 9.9381657279 9.9045515794 9.8934290621 9.8611936818 9.9458038848 9.9332388079 9.9706536242 9.9925828968 
9.9623814403 9.9688211674 9.9878967515 9.9655230602 9.9860446829 9.9654474387 9.9887123687 9.9916243462 9.99268398 
9.9908673724 9.8678297884 9.817712998 9.9986859801 9.5763976652 9.8776683731 9.8592668106 9.9936401506 9.8543861908 
9.3963968359 9.961295916 9.8638114956 9.860161566 9.8589993684 9.7599677638 9.895948013 9.5139535202 9.5253466418 