# vtk DataFile Version 5.1
vtk output
ASCII
DATASET POLYDATA
POINTS 1244 float
0.137422 0.0703483 0.125654 0.0264258 0.0343984 9.78494 0.061054 9.73048 0.0279093 
0.00570592 9.60023 9.5568 9.88564 0.0395677 0.0374287 9.65023 -0.039836 9.60903 
9.7632 9.83898 0.030782 9.7328 9.80911 9.62241 -0.00728234 0.00742597 0.858226 
-0.202469 -0.234272 1.79968 -0.140564 -0.143988 2.83243 -0.153477 -0.163679 3.9548 
-0.171861 -0.15205 4.93448 -0.359362 -0.308708 5.93775 -0.188741 -0.255437 7.03212 
-0.242471 -0.221912 8.0176 -0.225049 -0.159441 8.96533 -0.0719233 0.823224 -0.0702575 
-0.0673196 1.83884 -0.0912319 -0.135157 2.88048 -0.150913 0.0684291 3.88718 0.0353938 
-0.0198057 4.95766 -0.0252962 0.0132505 6.03602 -0.00959457 -0.0184036 7.07541 -0.0122066 
-0.231997 7.99877 -0.234735 -0.31883 8.95395 -0.260533 -0.328143 9.81526 0.801823 
-0.429334 9.83979 1.83718 -0.175799 9.67786 2.8533 -0.0638031 9.6424 3.94914 
-0.0703321 9.5984 5.00133 -0.314834 9.8219 5.99406 -0.132827 9.66345 7.02368 
-0.352322 9.95369 7.83886 -0.255355 9.7911 8.83483 -0.152896 0.889663 9.75955 
-0.131329 1.90038 9.77827 0.0120279 2.92074 9.71392 -0.0777671 3.90515 9.69065 
-0.106998 4.93752 9.74441 0.0274956 6.04125 9.60603 -0.0239489 6.93597 9.67548 
-0.204479 7.91375 9.79918 -0.163149 8.94686 9.74448 9.9834 -0.126831 0.964065 
9.82642 -0.153105 1.89115 9.77338 -0.136878 2.93067 9.85576 -0.232513 3.91531 
9.71403 -0.151174 4.97452 9.75964 -0.190658 6.05709 9.91146 -0.214595 7.04802 
9.86526 -0.293768 8.00592 9.84653 -0.337139 8.89361 9.82047 0.946684 -0.173097 
9.7408 1.96611 -0.0696892 9.6289 2.91668 -0.0969592 9.69043 3.91659 -0.104259 
9.68458 4.97075 -0.10638 9.675 6.03638 -0.084195 9.69134 6.9587 0.0358097 
9.85041 7.96438 -0.151735 9.81133 8.9639 -0.172306 9.87735 9.89526 0.807483 
9.94029 9.90531 1.86366 9.6008 9.54594 2.91571 9.71104 9.633 3.8499 
9.70069 9.55342 4.85747 9.67782 9.81101 5.93405 9.80009 9.78031 7.06082 
9.94197 9.9312 8.12407 9.93581 9.90111 9.02442 9.80423 0.77541 9.7535 
9.82696 1.96679 9.847 9.58381 2.95278 9.67372 9.54456 3.90577 9.52206 
9.63986 5.03979 9.59295 9.67158 6.06383 9.6018 9.79028 6.92132 9.64811 
9.69524 7.92922 9.78339 10.002 8.99948 9.98547 0.852351 -0.0913021 -0.137624 
1.91887 -0.179469 -0.0805756 2.90383 -0.17172 -0.252993 3.8834 -0.134919 -0.0170581 
4.97393 -0.130162 -0.0485117 6.06859 -0.268541 -0.0420797 6.98523 -0.221999 -0.198349 
7.94272 -0.239156 -0.06026 8.8634 -0.18956 -0.205371 0.962715 -0.139741 9.77169 
1.94352 -0.244198 9.74686 2.98845 0.00359578 9.61682 3.924 -0.159201 9.60408 
4.96287 -0.138394 9.74951 6.09461 -0.130237 9.56574 6.91431 -0.150029 10.034 
7.8989 -0.254125 9.68645 8.94689 -0.417443 9.90533 0.923104 9.90132 -0.132579 
1.93605 10.0309 -0.0899561 2.93256 9.76482 -0.114059 3.88149 9.72508 0.0822569 
4.95538 9.69296 0.0156658 6.03672 9.74334 0.0223339 6.97191 9.82109 -0.189819 
7.94177 9.86927 -0.167589 9.01967 9.88875 -0.256837 0.801611 9.92425 9.81983 
1.90991 9.79557 9.62647 2.96361 9.81171 9.7213 3.91441 9.76327 9.59236 
4.94481 9.69434 9.59621 5.96289 9.69212 9.4877 6.96101 9.70135 9.5186 
7.93648 10.0218 9.80511 9.02241 9.92684 9.81687 -0.406802 0.402178 5.02054 
-0.435508 0.253747 1.77081 -0.390837 5.65851 1.92594 -0.660035 8.19175 3.46055 
-0.313285 8.33953 0.354295 -0.480089 5.64235 8.01473 -0.318789 8.32387 9.50722 
-0.585608 8.1746 6.58354 -0.617072 0.15755 8.18299 -0.245995 2.91036 9.37277 
-0.352419 2.91655 0.373188 -0.25488 5.65354 5.01014 -0.415336 2.98102 3.46039 
-0.473491 2.98794 6.53714 -0.382851 0.332158 9.37239 -0.370855 0.287307 6.48896 
-0.471989 0.26514 3.47522 -0.131583 0.382738 0.357654 -0.362474 4.24885 8.65966 
-0.199158 5.69209 9.31109 -0.628099 6.96844 8.78453 -0.522345 6.95283 7.28807 
-0.651627 8.23061 8.02065 -0.391229 9.30487 8.77652 -0.492331 9.37714 7.34563 
-0.407109 9.32221 5.74838 -0.351971 4.30855 1.17179 -0.251693 5.64377 0.451762 
-0.469351 6.97583 2.6844 -0.46386 6.9669 1.16313 -0.625501 8.17826 1.93109 
-0.510047 9.37407 4.22368 -0.475602 9.45521 2.55723 -0.624979 9.36057 1.05475 
-0.531709 8.15143 4.9765 -0.403173 6.98107 4.2194 -0.294037 5.65185 3.43557 
-0.427195 6.96532 5.77081 -0.384374 5.64303 6.5371 -0.378166 4.31539 2.68207 
-0.502835 2.99575 1.92519 -0.42379 1.66839 1.13121 -0.523782 1.68249 2.7074 
-0.507565 1.66479 4.21473 -0.408367 4.30668 7.30972 -0.477581 2.97104 8.0158 
-0.517607 1.68215 5.76526 -0.636516 1.69416 7.31905 -0.599186 1.64807 8.79165 
-0.336667 2.97502 5.00082 -0.25575 4.30698 5.7868 -0.313763 4.31157 4.22549 
-0.487789 0.449189 8.81556 -0.643028 0.230253 7.31651 -0.340406 0.339037 5.75138 
-0.346517 0.345716 4.2689 -0.341376 0.320703 2.60566 -0.299513 0.435987 1.09544 
-0.419693 3.60671 9.13726 -0.157678 4.33015 9.29894 -0.185313 4.96441 9.0988 
-0.449157 4.97088 8.36953 -0.390703 5.68644 8.65163 -0.495968 6.307 8.36548 
-0.480816 6.30961 7.67428 -0.519039 6.95701 8.02779 -0.417105 7.6519 9.18039 
-0.634653 7.61391 8.43395 -0.632094 8.22141 8.79672 -0.60623 7.60536 7.68071 
-0.597836 7.58981 6.93635 -0.74255 8.2016 7.28939 -0.430282 8.87547 9.17608 
-0.281744 9.45779 9.3515 -0.578596 8.83709 6.94143 -0.606342 8.79924 6.17216 
-0.60253 9.49178 6.53531 -0.551393 9.40286 8.18476 -0.637967 8.86347 7.77885 
-0.664809 8.79767 8.41715 -0.242235 6.99812 9.3461 -0.320257 6.36945 9.04736 
-0.307273 3.66294 0.70819 -0.272763 4.31112 0.451072 -0.339826 4.98005 1.53866 
-0.289327 4.97158 0.785297 -0.324649 5.64615 1.18941 -0.409691 6.31913 2.29843 
-0.455097 6.31228 1.54715 -0.52437 6.94898 1.93442 -0.531842 7.61484 3.08959 
-0.61253 7.58115 2.31965 -0.600526 8.22919 2.69834 -0.514453 7.57731 1.54375 
-0.501743 7.64213 0.66341 -0.535746 8.21428 1.08933 -0.453671 8.77402 3.75699 
-0.516842 8.82759 3.02701 -0.44897 9.37612 3.44971 -0.554027 8.80122 0.715419 
-0.318918 9.40965 0.37382 -0.431785 9.46552 1.76417 -0.72411 8.82022 1.57178 
-0.605148 8.83565 2.30712 -0.371389 6.96589 0.45477 -0.291032 6.3093 0.75403 
-0.446866 9.21445 5.01069 -0.593631 8.67397 4.54851 -0.543385 8.18277 4.15884 
-0.644572 8.70301 5.39698 -0.533115 8.17753 5.80483 -0.483677 7.62565 3.82334 
-0.448213 6.96793 3.44371 -0.353289 6.32048 3.04943 -0.373858 5.65384 2.68471 
-0.321508 6.31803 3.82735 -0.316069 6.31472 4.61971 -0.285859 5.64428 4.22178 
-0.561968 7.54954 6.14394 -0.477531 6.96157 6.53467 -0.339791 6.31108 5.40622 
-0.318905 6.32288 6.15034 -0.304942 5.65146 5.77748 -0.396172 6.31142 6.92527 
-0.446792 5.64735 7.30464 -0.374897 6.97787 5.01314 -0.483924 7.58172 5.38825 
-0.498838 7.58557 4.59277 -0.367775 4.98192 2.29841 -0.402775 4.31041 1.92648 
-0.405385 3.66161 1.53784 -0.485055 2.96249 1.13445 -0.447263 3.65841 2.30812 
-0.410078 3.64903 3.06691 -0.465298 2.99419 2.6965 -0.340671 2.28104 0.699972 
-0.327238 1.5482 0.362731 -0.331745 1.0048 0.683228 -0.483773 1.0062 1.52116 
-0.514993 2.3191 3.08609 -0.468606 2.32168 3.84887 -0.468638 1.68917 3.46633 
-0.531678 0.988381 2.29074 -0.482486 1.01746 3.07441 -0.493429 1.02149 3.84397 
-0.458875 1.04151 4.60913 -0.540163 1.68747 1.94979 -0.517876 2.33444 2.32341 
-0.535475 2.31605 1.52928 -0.524826 4.97718 7.66746 -0.464171 4.31276 8.02559 
-0.430565 3.6496 6.92273 -0.500437 3.65572 7.66771 -0.533807 2.98902 7.29613 
-0.486748 3.6554 8.36166 -0.507512 2.9731 8.77735 -0.553705 2.33072 6.1438 
-0.512843 2.32109 6.91779 -0.624567 1.71102 6.54042 -0.530604 1.03739 5.35694 
-0.607907 1.00283 6.12189 -0.536948 1.02917 6.91304 -0.605667 1.01127 7.68608 
-0.542035 2.22903 9.16541 -0.270228 1.56561 9.50046 -0.49402 1.07294 8.34665 
-0.317181 1.05294 9.14427 -0.739682 1.69453 8.04142 -0.615999 2.30712 8.39266 
-0.603742 2.32025 7.67895 -0.528419 1.66694 4.99584 -0.460328 2.30793 5.38898 
-0.406328 2.98053 5.76964 -0.445518 2.31789 4.60979 -0.40928 2.97824 4.22672 
-0.309021 3.63884 6.16357 -0.388183 4.31465 6.53942 -0.38784 4.9804 6.92404 
-0.275085 4.97771 6.16197 -0.293053 4.98053 5.3971 -0.29799 3.63576 3.83999 
-0.309904 4.30816 3.44495 -0.256341 4.97744 4.61726 -0.25277 4.97691 3.82877 
-0.318456 4.98304 3.05737 -0.279706 4.30402 5.00997 -0.307083 3.63609 4.61094 
-0.341337 3.64073 5.39195 9.89446 0.401918 5.00903 9.99498 0.327935 1.74802 
9.81555 5.64935 1.93328 9.76449 8.12466 3.40611 9.94764 8.30394 0.343425 
9.80266 5.64971 7.959 9.95339 8.33347 9.53713 9.80865 8.13567 6.56828 
10.0328 0.275915 8.08506 9.81185 2.92873 9.1898 9.80592 2.95817 0.508235 
9.69943 5.65063 5.00033 9.77644 2.98676 3.45889 9.78046 2.98183 6.53454 
9.87038 0.388695 9.31562 9.80046 0.248345 6.60205 9.89557 0.265728 3.54316 
9.92566 0.475815 0.450829 9.89892 4.26833 8.56988 9.81847 5.63243 9.26223 
9.96523 6.99536 8.62482 9.81366 6.97202 7.28489 9.9308 8.11174 7.95423 
10.0696 9.32725 8.76057 9.95285 9.39495 7.30544 9.76005 9.24113 5.76665 
9.85345 4.29813 1.18685 9.72356 5.6249 0.460975 9.79465 6.97158 2.68719 
9.98865 6.97139 1.18825 9.98396 8.15926 1.95587 9.83246 9.2396 4.27663 
9.9686 9.37235 2.59269 9.98674 9.25019 1.10572 9.71779 8.15048 5.00344 
9.77539 6.96308 4.22574 9.74698 5.65124 3.45545 9.72112 6.97479 5.769 
9.73093 5.65085 6.54341 9.7783 4.31441 2.69019 9.88308 2.98153 1.95442 
9.94882 1.69065 1.16307 9.92563 1.69273 2.69941 9.83158 1.66456 4.24254 
9.69345 4.3067 7.29513 9.89166 2.97977 7.99423 9.83119 1.66993 5.76949 
9.9363 1.66695 7.29188 9.99819 1.59258 8.68661 9.73466 2.97989 5.00069 
9.70561 4.31446 5.77135 9.71536 4.31489 4.22701 9.91548 0.383782 8.73 
10.0535 0.282627 7.25755 9.9166 0.307392 5.75757 9.84237 0.319371 4.2775 
9.92502 0.357022 2.67518 10.0181 0.469638 1.22439 9.77442 3.58157 9.06653 
9.84829 4.29724 9.23119 9.80857 4.97096 9.00002 9.8407 4.94297 8.30744 
9.84905 5.60865 8.61612 9.87222 6.30656 8.3553 9.82737 6.32878 7.64059 
9.85381 6.95576 7.97308 9.90376 7.70673 9.14301 9.92899 7.56717 8.34282 
10.0351 8.20045 8.80249 9.94137 7.55451 7.60767 9.87337 7.60139 6.91568 
9.82173 8.21476 7.24497 9.99872 8.8308 9.24081 9.90774 9.49563 9.4586 
9.85133 8.77073 6.8886 9.79446 8.67415 6.16998 9.90944 9.29774 6.52094 
[...]
CELL_DATA 2484
SCALARS scalars double
LOOKUP_TABLE default
-7.1437282919 -5.424436879 -3.0654743079 -3.7473786325 -6.9391752035 -5.5535532128 -1.6655482675 0.1772874086 -0.25195409272 
-6.7766675355 -3.8394150879 -4.4537629783 -6.1034929053 -4.5653875739 -3.5906401705 -4.2652741459 -4.9473645368 -5.4541538126 
-3.4797819623 -4.2577790093 -4.2046601282 -3.4705786216 -3.9626501332 1.5466654079 -0.58288594953 2.7660142474 -0.28865646933 
2.2383784731 0.23889550903 -0.99376313541 0.26835688783 -0.57022012102 0.52697076137 -0.36346502997 -0.53308296958 -0.053248925874 
-0.12294370182 -1.0778041177 -0.61552960115 -0.46911125179 1.3735216371 -0.66663436516 -0.10737386671 -1.6543548138 -1.2238836306 
-1.4068646741 -1.0750833488 -2.2676976325 -0.52306730012 -1.305617951 -0.8650364499 -1.5186478507 0.67424412606 2.0838074882 
0.5896569092 1.067520947 6.728547014 2.5450633539 3.6012889966 -0.091381229786 0.51802712494 1.4572352507 -0.13753105553 
5.1813424992 3.1043535548 8.2028571935 8.4335037623 4.2075942704 2.1232543377 2.253143146 2.9629401064 1.2904566567 
0.67406921966 2.1002195422 3.1619271937 -0.40463121218 0.52800774868 1.3074373301 0.05739852501 2.8394425721 2.1287085041 
1.7550039183 -0.2469682596 -0.75504795403 -2.1814698554 -3.46871625 -1.0007733419 -0.62740759942 -0.47102247781 1.6465833214 
0.68293392919 -1.171119256 -1.6783130223 -0.89969661495 -1.4891596055 2.5090053603 0.096022469895 -0.99542827043 -1.6239007027 
0.54838142399 -0.24016015045 0.068676590387 -0.12259095055 0.33869795891 1.3569095063 -1.0207590493 0.30285211596 2.3805335682 
-0.62702597312 -1.3517486681 -0.59930376067 -1.4456010088 -1.6555990122 -1.6387639378 -0.0051792453469 -0.43548923936 -0.7044823502 
-1.1155074544 1.4043059396 -0.46097264076 -1.0229261824 -0.33355742851 -1.8444454553 -0.62005537274 2.8508691747 -0.32392257977 
0.93815850671 0.53697151073 8.653861334 7.5707819005 7.605754105 8.4531146945 1.2688109145 -2.7416443708 5.1558241797 
2.6072595077 5.9147762989 3.6091531909 4.4709937853 0.25601539362 0.17254691756 -0.063211287873 6.1597485056 -2.3103113229 
-2.1212555366 -1.5084968227 1.5571977363 0.12820220906 1.7476979366 0.71303532904 -0.61396510369 2.2403262486 3.5546135389 
3.7348596728 -1.4957188958 -0.84236222427 -3.1551709017 -2.4253860806 -1.3053848484 -0.14141343998 -1.4674207412 -0.82869778103 
1.3152143748 -1.7738345588 -0.25722337455 -0.92454063401 1.599235588 6.9797435447 0.3906923746 3.1089170759 6.8906052157 
2.550782155 -1.0959594873 0.3399951483 3.5721833875 -2.0394852865 -0.77372732186 -1.5623369929 -1.6074538285 3.5913744122 
1.6929012618 3.1489576514 -2.5733452589 -1.1390125301 -0.87800980703 -0.91995503892 -1.3354243978 -0.40971399105 -0.27103341666 
-0.10215123893 -1.2589926192 -0.47032554545 -0.68645895491 -0.48952302277 -0.64951058653 -1.5683552438 -1.6037596578 -1.6857576858 
-0.062004547021 -1.8437631082 -1.5032297118 -1.6558250578 -1.4882341115 -0.89140949244 0.36820723478 -0.36667307129 -1.3063572499 
0.295632056 -0.25069353599 0.11609898982 0.39686809509 -1.5962509278 -2.0329411499 -1.8260550701 -1.0993578074 -0.93614287723 
-1.08863031 -0.70414050201 -1.5741587729 0.09542675324 -0.82921277293 -0.099984872012 -1.4008412921 -0.6590993558 -1.9936230305 
-0.91989967514 -0.7038615353 -1.7686694341 -1.346888606 -1.8816938526 -0.54146248577 0.54731688379 0.34168904811 0.72355617143 
0.15557244944 1.3886406847 1.2895140282 1.7788649428 0.76420639274 0.55523224406 0.46718881372 0.560555339 1.1408599478 
0.86590139388 0.44269539071 0.36421411123 -0.81681449269 0.42144561319 -1.4586316344 1.7008234265 -0.15979237958 -2.0176548587 
-1.3850250038 -1.8182685871 -0.59740413816 -0.063992316398 1.1540326311 -1.528035215 -1.6129745313 -0.29480432575 0.30845927804 
-0.36712145614 -0.26839693266 -2.1626349008 -0.95679655086 -2.4287411033 -0.48625499439 -1.0870654286 -1.256065789 -1.8258840407 
-0.21461675922 0.078455344015 -0.21828161042 0.28986601816 -0.84968087498 -0.015969048 0.067033618209 -0.42857436813 0.11419917599 
1.1152195444 0.51980059831 0.76458343819 -0.28051228371 0.62511937252 -1.0282941152 -0.62052543771 0.35561907498 -0.85156809754 
0.21868835069 0.21933715011 0.10873378713 -1.3116640838 -0.57180497949 -0.33147745778 0.88705191628 1.1025333143 0.063992930398 
1.0180706904 1.581605755 0.064709414942 -0.95737824723 0.85732390033 -0.23347875048 1.1999790496 0.97342667041 0.44387534222 
0.89298226308 0.25179951859 1.8672421327 1.4747482033 0.81161040937 -2.258137183 -3.4272410714 -3.1832708314 -0.93327318335 
-0.32750852092 0.32342146656 0.88247096928 -2.6885257417 -1.3719620494 0.58652641278 -0.77503638927 1.4855779607 -1.6791970576 
0.11115115654 -0.82856010274 -3.2192348831 1.0483642324 1.5572051219 1.5391618608 1.7973090903 -1.9192045268 1.0409171291 
-1.3834676421 -0.76779642478 -2.9474738832 -1.1980656584 -2.8110208616 0.34360877214 2.5507730395 1.8262110742 1.0059429193 
1.1920984408 1.4926638009 0.13595030507 0.35957968479 1.9688858244 1.3196427279 0.89277203133 2.0506533676 -1.4157526116 
0.11399184374 -0.94392039727 -0.51405736899 0.16710306511 1.7213657637 1.3042801687 1.4995371372 0.76162013315 1.0843015468 
0.85315971944 0.72462848441 1.7295021584 1.1061546017 0.98321275123 1.1615918264 1.5551863298 0.48840861655 -0.19089681542 
-0.27955103394 -0.73751042212 0.90926067471 -0.41944527696 0.16439479582 -0.41832973453 -1.0351317618 0.19194086745 -0.30949847254 
-0.79879046001 0.68767092562 0.1555354308 0.84932306206 0.92827713559 -0.20565830967 0.99217238343 0.67282447423 0.88585397253 
-0.20794562547 -0.55305210184 -0.46880934721 0.52763671337 -0.23429174521 -0.21829778739 -0.46304337193 -0.11546264076 0.38741692365 
0.88147804294 0.36240158172 0.29539182684 0.60183186562 -0.3741417927 0.072177459061 -0.16612477464 1.7168126025 0.99381107122 
1.6017072963 1.0285079002 0.46175896413 1.9662406561 1.2155413488 0.18797462254 1.0971789464 0.14951180365 0.67211598997 
-2.8294848207 -2.3075423374 -0.51364579191 -0.77537265074 -2.8484170959 -1.1681513502 0.92915343999 -2.3420060387 -3.2833146503 
-2.8353525538 -3.081090155 -0.24377651329 -1.5104188975 -2.9272147768 -2.6780800691 -2.862463703 -0.059401846992 0.069999157519 
0.39253393207 -0.69036830394 -3.080037504 -0.66132731244 -3.0568137292 0.67976107708 1.0393387493 -1.2076251372 1.2357701457 
-2.1088010168 1.0210203771 -0.34162978937 0.19578190851 -0.34638029202 0.83450001654 -1.0391776615 -1.2722718487 1.4397225338 
-0.6649660984 -0.68683072288 -0.11069762844 -0.087318645041 0.72474042846 -1.6434274644 -0.83887360695 -2.1251670586 -1.5596604951 
1.0356179805 1.0033791819 1.3049352423 0.085775995488 -1.8109749077 -0.20025852781 -1.3331344676 -0.82362145216 0.64494402824 
-3.2060350861 1.4766041224 3.1150578648 1.3826193277 3.9142216758 -0.2917986718 -1.356591816 -0.74553409765 -1.4933108017 
2.7114351538 1.9844825693 3.1854030517 3.1625047534 -0.12805054955 -0.84199700636 2.808418974 -0.12768897102 -0.60937191784 
-0.92451676926 -1.2439665669 -0.56386062023 -1.5614864754 -0.22324829211 -0.0045588604604 -1.0371783155 1.2857672664 -0.14980096053 
1.3060988106 -3.1431508859 0.19424793822 0.47684422472 -1.3563579862 -0.60731223706 -0.57094143002 -0.31090994922 -0.31659792727 
0.49464543085 -1.4649873998 -0.84551129878 -1.4627686449 0.60565095796 -0.61033310956 2.6869325901 0.054680009882 2.6461364844 
0.019913057343 -0.24122592912 1.8380503162 0.044500156908 0.1064594252 -1.4979136504 1.4756803483 -1.6892485048 -0.83651833759 
-0.28627518266 -0.08444832393 -1.0633927094 -0.28674117885 -1.5860787309 0.65579601037 -1.0063307494 -0.65303025124 0.5702566778 
-1.3057813491 -0.67006912248 -1.836851553 -1.1158316018 -0.31073307481 -1.2244552038 -1.1085372267 -2.7047700554 1.2630981552 
3.0733953637 3.7027770924 3.2993245084 6.9402295443 1.6612369376 1.6345294275 0.07902053183 0.64423088223 1.3224720265 
-0.66953248889 0.97703676003 1.6139202272 2.8436987452 2.5956926196 2.20847024 1.4613134847 6.1598162589 0.38229891452 
-2.365063573 -0.10168541122 -0.1890059794 0.59529564525 -2.6337900156 -0.60572451265 -0.72268324945 -1.3657545861 1.6174268422 
0.30271020656 -0.28651411906 -0.16557816379 -2.2001065037 -0.46787447785 -1.336109696 -2.8659249188 -0.28044354838 -0.72581457104 
-2.4383429244 0.41098233133 0.48808344512 0.33737491142 -0.66189417566 0.60119914601 0.72542181981 1.468715646 1.3773890966 
-0.032326270335 -0.84028042562 0.99334043136 1.4863936099 -2.6813691986 -0.12307658475 -1.3017945517 -3.2733241151 2.4952333777 
1.6327451194 2.8663692519 1.033405866 -1.8854269287 0.27082191296 -1.0876959891 0.046944402845 -0.27306608767 -0.15735837056 
-0.18978016743 -0.82353786526 -0.00077960128943 -0.081890283518 -0.10267014237 -0.10353456228 -0.44263889627 0.10772958642 0.14795043713 
-0.053620300177 -0.1509265182 -1.6696314252 -1.3182947831 -0.11607899587 -0.13338705573 0.008216001464 -0.15088097108 -0.68543441914 
0.40578818703 -0.80696335636 -0.43198903992 0.28582867084 -0.88080402179 -0.046862722253 -0.097784449806 -0.18156364211 0.31500674702 
-0.048337024714 0.82439466198 -1.0204688636 -1.0827090532 1.6326511224 0.20490827498 -0.033418181559 -0.1262512191 -2.0157679914 
-2.9160378643 1.7663705993 -1.6192299085 -2.357643942 -2.7082088258 -0.14653305 0.28627572993 0.021671622127 0.16054643539 
0.64262539752 -1.0678091729 0.99274847573 1.2052332415 0.3109240686 0.52739439248 0.34303639552 0.39139508294 0.63023876832 
0.33552705929 0.43949106647 0.37990023652 1.039402244 0.51519880065 1.0768464825 2.3219100438 0.57693733049 -0.63038934271 
0.50345342703 0.59654341373 0.63530199067 1.1291608638 0.61929257198 -0.31350063884 -0.88681049539 1.4279505509 1.1978704934 
1.6905679421 1.0323321457 -2.0058015182 0.27207210561 -1.1016974256 1.1351171975 -0.97966995228 0.066027495047 -0.79853789174 
-0.37679587505 1.0402263004 -0.53493702748 -0.10572065298 -0.015591079186 2.1948161664 0.15623892994 0.97444391676 1.0341306246 
0.5059086532 0.47240639884 0.53403084869 0.12454865477 0.19342050819 1.2063219986 -0.50176158769 0.46243451442 0.17501492802 
0.92744167479 0.78425462564 -0.068118130451 0.24053921855 0.61476317128 0.88518709594 1.2356173118 0.52847330863 0.69443624812 
0.28268923612 -1.9491045341 2.1454346557 1.0292713689 2.5756538193 1.5661196948 -1.7724579663 0.27134014522 -1.1437962427 
0.65741234293 0.75076510414 0.863768921 0.70120002881 0.86216335254 0.6061906859 -0.62981673551 0.42665900734 0.27476922793 
-0.63452999261 1.4358988617 1.3548333984 -1.8680148606 0.98752160057 0.89800894166 1.0490445301 2.8492063172 0.44308086769 
-0.14736076521 -0.88434948216 0.10508432393 -0.06965478851 -1.9892931598 -1.3961961445 -1.2218195948 2.278132808 0.90883853192 
-2.3269398901 1.5875758694 -0.094668899498 -0.30041101887 -0.29883187205 1.4216324578 0.32515488965 0.23559011326 -0.39143888619 
0.9633553135 0.79663486395 0.89752527199 1.1844706629 0.31589761704 0.89848613378 0.89920422775 1.0022789184 0.4926362551 
0.30442693882 0.2754791027 0.07060841791 0.54469343513 0.55995068723 0.72668981879 0.71248120196 0.61911318494 0.61315767273 
0.58646279642 0.66274006229 0.76865386429 0.96181440086 0.83867171034 1.0987108047 0.60216828369 0.66480355642 0.22169437511 
0.26921558354 -0.66625398 -0.19542255835 -0.28260396485 -0.008862296841 0.050315825203 -0.16537811337 -0.046093924268 -0.018002872867 
-0.30144838275 0.11927309593 -0.10848890745 0.17532619159 0.30851042936 0.14375049647 0.33103853098 0.33715166715 0.10229997615 
-0.16355323756 -0.15393433329 -0.097203459862 0.01761926142 -0.1186775955 -0.065156655606 -0.11794269912 -0.11247943438 -0.031091396843 
0.056298793807 -0.086923291579 -0.031492343966 0.14540178365 0.041685525759 -0.0097000194849 0.16521319834 0.41943789627 0.33508871742 
0.31495511028 0.20498058732 0.478623098 0.53636697894 0.43916141499 0.3072179351 0.12777264605 0.18944756055 0.26156370255 
-7.9355119848 -7.0509929843 -9.2540928218 -9.1010213853 -7.9499055096 -8.1351700426 -8.713661385 -8.1871131362 -7.875528147 
-7.9222874064 -8.3314608077 -9.5678822749 -9.1271876553 -8.9199349527 -9.2389668223 -5.7954550498 -8.5469292602 -9.1415149186 
-9.1251458046 -8.6496474422 -6.0119882329 -9.261017127 -8.2791207471 -9.1762652089 -8.9095531351 -9.269603169 -8.8702659316 
-8.7764640923 -9.8316126727 -9.6081549681 -9.8487492613 -9.9619046518 -9.2786368558 -9.543911835 -9.5182348643 -9.5112056782 
-9.9445748785 -9.8108945348 -9.9620274941 -9.9403243907 -9.5733528566 -9.9006598519 -9.8758814309 -9.7878599877 -9.9322711829 
-9.9677765698 -9.9925015614 -9.9713280725 -9.9863433665 -9.9341240794 -9.5875170058 -9.9554292178 -8.4692275467 -9.8441061662 
-8.3354221158 -8.4364832394 -7.3112600533 -9.2824567367 -7.3195502479 -9.9012050517 -9.4914775231 -9.7227752223 -9.54369858 
-9.3684382294 -9.9445585287 -9.7901642182 -9.4864482606 -6.3249211374 -9.6750215618 -8.3406571379 -6.5061873318 -9.8637495353 
-9.9560744362 -9.8852826484 -9.9436055823 -9.8927886433 -9.8273240162 -9.9992120996 -9.8968771017 -9.0693820266 -9.2036927449 
-9.5951518047 -9.1155673894 -9.7057398298 -5.6417960953 -9.8316998139 -9.8401802572 -9.3154151458 -9.8409810497 -9.672216127 
-8.8325490723 -8.7028919156 -9.7993593072 -5.2150646089 -9.1817228745 -9.8771166622 -9.7643303206 -9.7809954254 -9.9538431437 
-9.7796563811 -9.9866699156 -9.8182531094 -9.8150510214 -9.2212693686 -9.7632923318 -9.6615309862 -9.7164527633 -9.9485304957 
-9.9102669121 -9.9651333222 -9.9669278865 -9.9527352727 -9.9574652369 -9.9802003918 -9.972790373 -9.9804440461 -9.9533060982 
-9.9975567613 -9.6958052033 -9.9683388988 -9.9988299754 -9.9509475393 -9.9707010539 -9.9953259434 -9.9655533999 -9.7083807856 
-9.8785650235 -9.8606215928 -9.1049484215 -8.5545192732 -8.1368963582 -8.7960297702 -9.5334710275 -8.9907089334 -9.5929377204 
-9.5428301608 -8.7189892036 -8.6963820134 -8.6890297254 -9.0778554237 -9.5527439833 -9.7259706708 -8.9060670056 -9.5983271842 
-9.9610503433 -9.6437555159 -9.776861868 -9.9673285241 -9.9774672254 -9.9805402125 -9.9169446084 -9.7424202912 -9.7156124152 
-9.8246862714 -9.8426338351 -9.3992555797 -9.5742948182 -9.5380622855 -9.8641049102 -9.9124400298 -9.9055629711 -9.8639358547 
-9.4450381559 -9.9072234256 -9.463240464 -9.2739562332 -9.3845045796 -9.0281244093 -9.7097849548 -9.7354940883 -9.0346268772 
-9.9038727501 -9.9989091337 -9.8861896746 -9.7504431159 -9.9419166396 -9.9953434921 -9.9205968217 -9.9982754182 -9.9273903254 
-9.9274233653 -9.9709149811 -9.9539685948 -9.9339293974 -9.9360102889 -9.9330531004 -9.9733623827 -9.9730501138 -9.980802719 
-9.9739217852 -9.9929852929 -9.9334116922 -9.9527059951 -9.9409238773 -9.9718538955 -9.9286481289 -9.9726771998 -9.9332786658 
-9.9318969716 -9.9809132528 -9.9419904732 -9.9400691238 -9.89879924 -9.9798518081 -9.9932286118 -9.9695361257 -9.9702188459 
-9.8877605241 -9.937250487 -9.9748039821 -9.9076342689 -9.9665819915 -9.9488534294 -9.9381811981 -9.961874699 -9.8987667312 
-9.9911890212 -9.9612742121 -9.9809024175 -9.9050918962 -9.8776314412 -9.8630721965 -9.9371524836 -9.984622848 -9.9674064379 
-9.9909077442 -9.9714712891 -9.9262225832 -9.9500584376 -9.9195623287 -9.9973862159 -9.9609810184 -9.9338618562 -9.9704666005 
-9.8763243176 -9.6444103995 -9.9111378998 -9.7915553335 -9.9051924334 -9.932205872 -9.9465283499 -9.9463904079 -9.8955085374 
-9.8933059513 -9.9995505701 -9.9978787466 -9.883160035 -9.7724137143 -9.295769289 -9.4350212622 -9.9866484951 -9.0205130038 
-9.9462955831 -9.9725234777 -9.7117092279 -9.4678918617 -9.7565097467 -9.0063404219 -9.3892999573 -9.9133875919 -9.903843523 
-9.9056404081 -9.8220187643 -7.7849510911 -8.7749745864 -7.5759220708 -9.8666524373 -8.844309271 -9.743783232 -9.3229804802 
-8.9290211894 -9.8957917422 -9.940510361 -9.9088944602 -9.5821742556 -9.8180879012 -9.7216187811 -9.5786939409 -9.975447194 
-9.7245095994 -9.8671645228 -9.8136968428 -9.9036254532 -9.898143502 -9.5480759361 -9.8695943087 -9.942519853 -9.8361789495 
-9.9016352473 -9.9366499731 -9.8551797852 -9.9627339007 -9.8404818246 -9.8657472705 -9.9332501375 -9.8179714347 -9.9613376415 
-9.8914472541 -9.7590668376 -9.900074913 -9.9654131631 -9.763219107 -9.9363990063 -9.9376625464 -9.9362673365 -9.9427979812 
-9.6911596176 -9.8089482944 -9.5293092554 -9.862058806 -9.9800147092 -9.7764362649 -9.8334296079 -9.8522064132 -9.4497196146 
-9.6945877904 -9.9659644389 -9.996210407 -9.6695922313 -9.4966898234 -9.757577965 -9.8117326703 -8.8332298359 -8.231849874 
-8.5378783176 -8.4257082489 -8.5014100276 -9.5987354811 -9.4951223381 -9.4650059783 -9.843497577 -8.4598370211 -9.7107094768 
-7.0338605454 -9.8779370161 -8.9196266012 -9.4138614619 -9.8021010372 -8.0228997448 -9.9683708036 -9.8132056845 -9.7883383041 
-9.5165919668 -9.7080648955 -9.7296062349 -9.8856052235 -9.7120973501 -9.4582639556 -8.4667337867 -9.9302546117 -9.7627126342 
-9.9749210824 -9.8882367296 -9.9848198162 -9.9858458628 -9.7358984796 -9.7989655585 -9.7952911492 -9.8428875931 -9.9094281565 
-9.8835425483 -9.8925690277 -9.8108905825 -9.8566025024 -9.9992032477 -9.9786863617 -9.9197782219 -9.8827206733 -9.9977779647 
-9.8830069223 -9.9451230399 -9.937707359 -9.9198688349 -9.9492003965 -9.9206547398 -9.9972409932 -9.9334759662 -9.9247924992 
-9.9636003424 -9.9959422494 -9.9229754999 -9.9713386787 -9.9788978929 -9.8770451395 -9.9002686392 -9.8804504625 -9.9973549668 
-9.9974973937 -9.9466320138 -9.9907274522 -9.970892682 -9.9887093239 -9.9961050424 -9.9745318983 -9.9807246725 -9.9846291662 
-9.9984533439 -9.987779598 -9.973065584 -9.9964196761 -9.9279003339 -9.9781035957 -9.8736463114 -9.9814462029 -9.8593367484 
-9.8553915889 -9.9759948966 -9.8380215483 -9.93561695 -9.851711299 -9.8892560828 -9.9728002085 -9.9923967279 -9.992550613 
9.6268638486 8.5601415739 9.8540610543 9.8197134659 9.6454602203 8.6860697615 9.88195134 9.6998975804 9.6239971389 
8.6228468016 8.6991740097 9.5011853131 8.7743014693 5.2470819194 6.2460964374 9.9201462396 9.5451145985 9.9560556366 
9.974871878 9.5664099675 9.9299546788 9.9632965081 8.5919100667 8.8976579708 7.9477947539 9.8135295353 8.8221836444 
9.0967580383 9.9824905346 9.9611561846 9.9903181578 9.9824079355 9.993409936 9.6737779472 9.8842790856 9.8731785755 
9.8433702115 9.8752413416 9.902396424 9.8433953247 9.9721385367 9.9982348334 9.9326636073 9.9835579171 9.9039945366 
9.86476981 9.959602236 9.9731146854 9.8753907719 9.8736618693 9.8745758989 9.9800563948 9.9383232497 9.937325409 
9.6387822897 9.8519690162 8.2853420148 9.9191077772 8.2766381183 9.9942788966 9.8042639457 9.9484287708 9.9463714002 
8.3137972502 9.9994170298 9.7454146775 8.2845016688 9.8148909491 9.908168399 9.8134578866 9.9836019171 9.9904925032 
9.8481018699 9.8502545611 9.7892444401 9.951645839 9.9573172197 9.8348546779 9.9869048607 9.7840969478 9.9845262005 
9.9802397765 9.5395342896 9.9826818234 9.414549275 9.9485522437 9.9085178324 9.8750914416 9.9073523892 9.9599853018 
9.8516433844 9.8228019293 9.9305684531 9.4685220604 9.8230687034 9.3193074953 9.899177441 9.8511795566 9.7735030792 
9.9620817247 9.9312074018 9.8918858065 9.9534861256 9.7870051975 9.687505662 9.6892286641 9.936353096 9.6795204159 
9.9664303764 9.9296375638 9.9394808324 9.9362070893 9.9561740023 9.909128374 9.9607235965 9.9313129118 9.9638936983 
9.8973269736 9.9411875963 9.9042068361 9.9617380964 9.9719428009 9.9515350448 9.9828551535 9.9146136566 9.9279240982 
9.9527492068 9.9431615082 8.7873980479 8.8467604223 8.2253540178 8.4542207296 9.990086732 9.1285528916 9.956904972 
9.9609064662 9.8609210782 9.8247376676 9.1040488885 9.8110174668 9.7722871849 9.9600105166 9.0921302119 9.9408108968 
9.918660571 9.9818607507 9.9868911575 9.9787248133 9.9117137418 9.9961537196 9.862119172 9.9732300759 9.9601274779 
9.8702467644 9.9718271839 9.9672625904 8.9430121189 9.6455397094 9.9372884722 9.8916750678 9.9434485702 9.9925468828 
9.7255019852 9.9608745588 9.1982475983 9.8779773051 9.893491363 9.1230009692 9.9433756315 9.6390700106 9.1235462045 
9.93162246 9.9952653645 9.9437384239 9.9566022949 9.9882405984 9.9197306596 9.9261741399 9.9894272008 9.9946648868 