# vtk DataFile Version 5.1
vtk output
ASCII
DATASET POLYDATA
POINTS 356 float
0.276512 0.221626 0.204424 0.371193 0.135287 9.53985 0.210674 9.41341 0.0892855 
0.190565 9.46216 9.2866 9.33157 0.233991 0.137 9.21532 0.33309 9.4292 
9.58096 9.22097 0.128194 9.36384 9.20854 9.45448 -0.280955 0.0387136 1.09797 
-0.357026 -0.0881784 2.70439 -0.240655 -0.0743817 4.22697 -0.290917 -0.135224 5.74373 
-0.18336 -0.00193399 7.31054 -0.293684 -0.000499987 8.8285 -0.0545419 1.30045 -0.106682 
-0.201366 2.73817 -0.392635 -0.372925 4.4975 -0.340098 -0.336926 5.45193 -0.306972 
-0.408145 7.31001 -0.218146 -0.0616732 8.68399 -0.121615 -0.013674 9.46818 1.39559 
-0.190828 9.62508 2.84727 -0.112255 9.43917 4.27934 -0.121207 9.50086 5.7388 
-0.0799574 9.64934 7.15873 -0.019242 9.59796 8.46329 -0.218795 1.30828 9.53469 
-0.369825 2.5635 9.65579 -0.380736 4.43539 9.41625 -0.466912 5.43116 9.65159 
-0.429473 7.43167 9.56949 -0.0873464 8.73784 9.63396 9.61221 -0.0186207 1.11797 
9.74578 -0.132018 2.96407 9.7221 -0.0922095 4.01159 9.61859 -0.238023 5.78784 
9.59751 -0.314845 7.32 9.58413 -0.129278 8.85921 9.49608 1.25157 -0.0218116 
9.53279 2.6166 -0.471569 9.57121 4.52715 -0.46618 9.50093 5.51641 -0.336031 
9.75859 7.42353 -0.232917 9.4953 8.54651 -0.115781 9.58935 9.4995 1.18154 
9.69279 9.38594 2.67413 9.62793 9.3238 4.19399 9.55843 9.2142 5.76229 
9.68094 9.33117 7.31442 9.64209 9.38796 8.71511 9.62295 1.2416 9.54924 
9.44989 2.67972 9.67246 9.46322 4.3946 9.38211 9.55768 5.50595 9.64125 
9.66485 7.23056 9.42329 9.55396 8.68755 9.65521 1.36108 -0.0198494 -0.0219636 
2.86584 -0.335158 -0.111828 4.52523 -0.238541 -0.0712389 5.76523 -0.182169 -0.114381 
7.46875 -0.171544 -0.186075 8.53471 0.0165387 -0.0138257 1.37984 -0.0372648 9.68838 
2.90901 -0.31898 9.74014 4.50467 -0.324645 9.77517 5.74368 -0.278863 9.70306 
7.38939 -0.252465 9.8605 8.58876 0.11711 9.60105 1.15663 9.3715 -0.341863 
2.72002 9.6545 -0.323636 4.36459 9.43419 -0.260904 5.83283 9.45532 -0.256775 
7.43733 9.5021 -0.267239 8.85684 9.33559 -0.214639 1.22831 9.60336 9.76143 
2.74868 9.60587 9.71271 4.3282 9.45293 9.70269 5.89286 9.46447 9.62299 
7.40819 9.49017 9.62435 8.77914 9.43736 9.52879 -0.259621 0.425039 4.9944 
-0.826307 5.80776 1.70892 -0.918924 5.84162 8.15728 -0.791558 0.325321 8.08789 
-0.39999 0.390201 1.86113 -0.663401 3.21528 9.17092 -0.296492 8.44461 9.04136 
-0.544993 8.64925 6.64553 -0.592137 3.10955 0.328497 -0.40663 8.58167 3.37037 
-0.280898 8.54853 0.300036 -0.560745 5.78866 4.97867 -0.837053 2.94331 3.38166 
-0.853078 2.97193 6.61968 -0.223019 0.436963 9.27043 -0.382 0.418428 6.52439 
-0.373358 0.432572 3.44277 -0.131677 0.505526 0.410002 -0.79389 4.63728 8.88303 
-0.514313 6.04397 9.0907 -0.770044 7.15825 8.83457 -0.648375 7.21757 7.42556 
-0.650479 8.57028 8.17005 -0.875521 4.55047 0.797943 -0.621593 5.98818 0.306737 
-0.653551 7.26077 2.52454 -0.764708 7.27389 0.897363 -0.526857 8.59169 1.75344 
-0.355626 8.63134 4.97948 -0.829625 7.25569 4.20953 -0.845479 5.78781 3.3902 
-0.714707 7.23427 5.79441 -0.902269 5.79459 6.59726 -0.676597 4.36214 2.50022 
-0.79868 2.99398 1.67091 -0.736704 1.31587 0.772264 -0.709715 1.28028 2.62093 
-0.671475 1.26563 4.21296 -0.608331 4.38968 7.50162 -0.887325 2.95931 8.21878 
-0.72964 1.27858 5.78331 -0.696558 1.25537 7.34964 -0.687221 1.4552 8.98157 
-0.499096 2.904 5.00296 -0.768238 4.36623 5.80413 -0.6396 4.38381 4.18531 
9.61905 0.533218 5.05573 9.82724 5.82253 1.75124 9.82163 5.81095 8.22296 
9.91307 0.438508 8.0138 9.82651 0.475984 1.80595 10.0532 3.16838 9.18191 
9.82536 8.29085 9.26192 9.9567 8.50005 6.52303 9.80851 3.15758 0.347228 
9.6242 8.55245 3.43862 9.89949 8.55305 0.309441 9.48901 5.7891 5.02232 
9.44612 2.97783 3.34749 9.73746 2.91295 6.56548 9.91885 0.555397 9.50007 
9.55065 0.438665 6.62679 9.67205 0.605671 3.46805 9.70653 0.478675 0.318742 
9.8531 4.70981 8.87276 9.69705 5.92709 9.14616 9.90445 7.17961 8.75697 
9.82762 7.1029 7.37692 9.68142 8.37075 8.04202 9.58583 4.5801 0.913126 
9.86035 6.01182 0.432482 9.86019 7.22863 2.58353 9.67543 7.22876 0.990353 
9.90253 8.54633 1.81489 9.76799 8.54837 5.01845 9.77016 7.17841 4.15455 
9.39178 5.79305 3.36822 9.61734 7.21248 5.8428 9.68899 5.75251 6.58217 
9.6853 4.38255 2.59314 9.82154 2.97716 1.6974 9.85434 1.44086 0.835165 
10.0215 1.33574 2.54461 9.82399 1.39361 4.249 9.70049 4.40473 7.35505 
9.70841 3.02913 8.17483 9.67491 1.33477 5.79289 9.81856 1.34418 7.38746 
9.98427 1.42332 8.90061 9.5577 2.96613 5.01747 9.33034 4.40284 5.86212 
9.45783 4.37371 4.20713 4.18871 -0.747003 1.64883 4.19672 -0.835715 8.21656 
9.23412 -0.494589 4.84924 9.15611 -0.675277 8.17792 9.51801 -0.770663 1.85862 
6.87188 -0.504054 9.345 1.48463 -0.240088 9.53686 1.36155 -0.552512 6.64859 
6.80042 -0.49175 0.42529 1.29957 -0.551779 3.40435 1.43439 -0.276357 0.209213 
4.18572 -0.47769 4.96835 7.03799 -0.965833 3.36796 7.0015 -0.761911 6.6173 
9.1081 -0.287096 9.52041 9.09374 -0.461231 6.57938 8.46645 -0.665102 3.41078 
9.12893 -0.341124 0.309976 5.50313 -0.769626 9.05651 4.03467 -0.478187 9.18092 
2.79648 -0.706209 8.94853 2.77652 -0.644511 7.43767 1.29456 -0.509851 8.26479 
5.51178 -0.790689 0.678499 4.09775 -0.420624 0.494902 2.75764 -0.708949 2.55363 
2.73842 -0.624425 0.879853 1.32993 -0.486797 1.70844 1.37627 -0.315731 4.99483 
2.80943 -0.555851 4.22322 4.20771 -0.769715 3.33146 2.73606 -0.755431 5.78524 
4.19025 -0.740179 6.65533 5.62327 -0.568405 2.532 6.97877 -0.885507 1.67793 
8.52529 -0.776912 0.797112 8.02551 -0.691813 2.79151 8.03956 -0.750372 3.8472 
5.62029 -0.614407 7.41003 7.01935 -0.854428 8.33452 8.48039 -0.77323 5.80255 
8.45421 -0.62013 7.32407 8.50131 -0.674688 9.13015 7.04563 -0.685354 5.01464 
5.63281 -0.728041 5.79678 5.60824 -0.665716 4.20148 4.19325 9.60549 1.72713 
4.19314 9.69843 8.17631 9.2686 9.36091 4.9868 9.44962 9.64107 8.01724 
9.30448 9.66463 1.83787 6.83168 9.92292 9.09899 1.45558 9.66899 9.07088 
1.38813 9.6677 6.57416 6.85049 9.75189 0.494094 1.3377 9.59076 3.37315 
1.35889 9.71425 0.293501 4.25129 9.52925 4.9927 7.06823 9.52337 3.36331 
7.01335 9.769 6.64949 9.32276 9.70288 9.22023 9.44271 9.76966 6.52454 
9.3221 9.55925 3.45706 9.27479 9.45539 0.366416 5.42259 9.78515 8.87025 
3.93767 9.83208 9.14375 2.81104 9.77182 8.78057 2.78885 9.8809 7.44011 
1.40938 9.81538 8.09334 5.48376 9.71782 0.814502 4.00254 9.81167 0.576243 
2.84364 9.82638 2.52181 2.71254 9.76945 0.952663 1.35814 9.84173 1.79345 
1.30834 9.72223 4.95836 2.79287 9.67351 4.20352 4.22803 9.44933 3.37652 
2.72096 9.49332 5.83287 4.21577 9.70363 6.58027 5.57999 9.73495 2.59049 
6.98055 9.84022 1.76585 8.568 9.87331 0.878016 8.61809 9.79999 2.64139 
8.68451 9.69035 4.20502 5.62013 9.75345 7.3745 7.04116 9.66447 8.18863 
8.73715 9.53655 5.79334 8.7282 9.81933 7.34435 8.4795 9.87937 8.87995 
7.01953 9.56641 5.00667 5.64869 9.42682 5.80447 5.60079 9.57909 4.20102 
1.70034 4.2154 -0.776422 8.29805 4.18381 -0.854288 5.09583 9.115 -0.368847 
8.13545 9.21469 -0.587496 1.88218 9.23661 -0.506185 9.21348 6.79912 -0.633874 
9.2608 1.39076 -0.388644 6.60026 1.35684 -0.540535 0.35145 6.85669 -0.664712 
3.41983 1.26963 -0.542472 0.25184 1.43816 -0.377791 4.96797 4.18426 -0.50319 
3.39017 7.07502 -0.830248 6.59843 7.02576 -0.796787 9.4222 9.0508 -0.347062 
6.50965 9.29034 -0.78114 3.39941 9.18136 -0.496288 0.462465 9.26015 -0.169825 
8.81425 5.37144 -0.645813 9.22799 3.94367 -0.590789 8.71533 2.80126 -0.686709 
7.36999 2.75576 -0.625394 8.19041 1.30643 -0.668569 0.777378 5.48318 -0.789356 
0.389519 4.0167 -0.499085 2.56399 2.75071 -0.71368 0.860547 2.67071 -0.744314 
1.77459 1.34483 -0.489711 5.008 1.3702 -0.38427 4.19622 2.81908 -0.605852 
3.35061 4.19386 -0.802183 5.77354 2.78692 -0.745555 6.64141 4.21569 -0.79252 
2.54784 5.59617 -0.797363 1.68062 7.02966 -0.845259 0.762847 8.64976 -0.66395 
2.63595 8.68368 -0.776682 4.24279 8.62994 -0.686133 7.42916 5.62233 -0.755903 
8.28132 7.03063 -0.850995 5.84101 8.65485 -0.681847 7.40075 8.61978 -0.692477 
8.95891 8.48115 -0.74456 5.00384 7.05606 -0.575972 5.79918 5.60258 -0.779685 
4.17803 5.62925 -0.615047 1.73645 4.19018 9.54959 8.17519 4.18426 9.70065 
5.07206 9.1335 9.73001 8.18 9.20079 10.0937 1.89412 9.08911 9.82561 
9.21482 6.82718 9.82457 9.20699 1.53875 9.89421 6.6191 1.33298 9.81438 
0.393026 6.83554 9.77444 3.38405 1.36249 9.69538 0.348355 1.39293 9.78094 
4.98972 4.22245 9.55647 3.36121 7.02469 9.61083 6.59323 6.97728 9.64314 
9.21373 9.10824 9.79773 6.59461 9.08418 9.89282 3.43217 9.15888 9.64214 
0.493677 9.06707 9.69443 8.80878 5.31908 9.65012 9.16419 3.9832 9.82366 
8.75977 2.77282 9.75139 7.38444 2.81641 9.90745 8.12278 1.39139 9.82916 
0.908077 5.43545 9.6467 0.422028 3.99436 9.90151 2.5076 2.77744 9.7664 
0.996987 2.773 9.7099 1.82232 1.37603 9.88008 5.01365 1.29436 9.85545 
4.18839 2.78147 9.62438 3.37265 4.20158 9.46144 5.80571 2.80477 9.61293 
6.61015 4.21806 9.48484 2.57365 5.6155 9.71714 1.76892 6.97782 9.74906 
0.958448 8.44997 9.85152 2.66114 8.57663 9.98223 4.26185 8.50747 9.77581 
7.39941 5.6154 9.84491 8.31121 6.97814 9.87225 5.8389 8.54006 9.6818 
7.29194 8.50895 9.869 8.92309 8.52141 9.93821 5.0495 7.0386 9.72973 
5.79897 5.57585 9.32556 4.17511 5.62544 9.39267 
POLYGONS 709 2124
OFFSETS vtktypeint64
0 3 6 9 12 15 18 21 24 
27 30 33 36 39 42 45 48 51 
54 57 60 63 66 69 72 75 78 
81 84 87 90 93 96 99 102 105 
108 111 114 117 120 123 126 129 132 
135 138 141 144 147 150 153 156 159 
162 165 168 171 174 177 180 183 186 
189 192 195 198 201 204 207 210 213 
216 219 222 225 228 231 234 237 240 
243 246 249 252 255 258 261 264 267 
270 273 276 279 282 285 288 291 294 
297 300 303 306 309 312 315 318 321 
324 327 330 333 336 339 342 345 348 
351 354 357 360 363 366 369 372 375 
378 381 384 387 390 393 396 399 402 
405 408 411 414 417 420 423 426 429 
432 435 438 441 444 447 450 453 456 
459 462 465 468 471 474 477 480 483 
486 489 492 495 498 501 504 507 510 
513 516 519 522 525 528 531 534 537 
540 543 546 549 552 555 558 561 564 
567 570 573 576 579 582 585 588 591 
594 597 600 603 606 609 612 615 618 
[...]
CELL_DATA 708
SCALARS scalars double
LOOKUP_TABLE default
-2.7687340696 -5.4255959793 -3.7855551284 -2.8349473513 -2.8071315129 0.12184772023 -8.6001092506 -3.0621687928 -1.3974318123 
-2.5387177865 -1.9697838599 -3.9948991771 -5.5699670049 -1.5241985661 1.2804520667 1.5341194118 0.69995381407 0.54930265022 
0.23079202047 -2.0042368795 1.5188549007 2.6066531746 0.35411722258 0.44724306226 4.0508158243 4.3789196965 5.0995251528 
3.569149852 3.9678189213 2.3733396844 -1.1166675468 2.8297927929 -1.0059551729 -0.73699993585 -0.4208336085 1.3035551555 
-0.49016622435 0.4850122673 0.12613993427 0.79742264264 1.3707279814 2.799014195 1.3386277117 2.4225233354 4.4847441936 
4.5552456764 4.5088230085 2.3719115176 2.1739342477 -0.41269484046 0.33333959986 -0.1537765761 4.1036801864 2.5112003118 
3.468420409 4.2943027587 2.4436616774 3.048570752 2.7448038548 1.2350882296 -0.87539921883 0.6847756314 0.94390144526 
0.12315104366 1.8467886832 1.5191523898 -1.4441120456 1.8502831584 3.1551009927 2.8806598078 -0.41848586166 -1.3924694254 
1.0048318867 0.17119215682 -1.9833664467 -3.8686791791 -3.3448104889 -0.86837028924 -3.0418730279 -2.3845107979 -2.9988540698 
-3.5258435793 -3.3420903925 -0.65263933064 0.4293665412 -0.44246144674 -1.6361750544 1.8191977804 -0.40623773836 1.1501536153 
-0.8242443682 -2.9743753349 -3.1402369717 -3.640807277 -0.39556617322 -2.7787851488 0.96777268618 -2.4879569083 -1.8043426693 
-0.11785994861 -1.0009742848 -1.2159312693 -4.6143805394 0.35129225049 0.04550159421 1.2254537048 1.1378467358 -2.0737161559 
0.22865854217 -1.4504634647 1.2471766116 -0.44359842354 -1.0984337193 -1.320303885 0.99586289261 0.20065372691 -0.6399581023 
-1.3790669239 -2.4949719361 -7.147356252 -1.2155231032 0.78204494019 -0.35645760921 0.59122265867 -4.3209902196 -0.44158556684 
0.86414652853 -1.9375189923 -2.9189247835 -1.6051419531 -6.9329202085 0.61302308834 0.99490842863 0.51763347677 1.3438933946 
2.2662956281 -0.28819446011 -1.9180288747 -0.39557555251 1.1958896585 0.19057458419 1.4693749548 4.0466186074 1.4311698215 
0.20867057528 3.424568166 1.1053417203 -0.32436048564 -1.1687948796 -0.89339912279 -0.49375633519 -0.18260630306 -0.55594083133 
-1.8911723856 1.6109498671 0.72612664513 -2.6594364331 0.4486369715 0.66585825786 -1.6818968445 -0.98637282333 -0.44746372786 
3.1183712024 4.0238188318 2.849213391 0.73408087677 -1.4452618388 1.3052091165 1.114611083 -1.0526533066 1.5585610025 
2.3481337314 3.9996882973 3.9941713898 1.3682726175 0.83444672192 2.3846765642 -1.7219417496 -2.3246846946 -2.8723058702 
-1.7920559397 -0.15906952765 -0.55998092934 -0.2089962937 -1.4193328476 -1.8888803741 0.58540585308 -0.55890712173 -1.4118186381 
1.5053999441 -0.46826593518 1.2419765159 -1.4181288514 -2.1408027109 -1.9217792171 2.8475478479 0.73390910596 -0.98247893164 
-0.91786140735 -3.012273705 -1.336815392 2.2717565678 0.24890100509 0.73187803554 -0.2736713061 0.15828535245 0.56048736182 
-0.48117153864 0.044635741119 -0.35924548828 -1.1344862565 -2.1524748821 -1.415443121 -2.3632267415 0.27440036219 -1.0054886774 
3.0433215031 0.1518375286 0.58816798673 1.178480013 -1.5075716457 0.16818020269 1.9693972791 1.1847246076 1.4980993757 
-0.36925954614 -1.8969497363 -1.2855196401 -0.93527254513 0.11786635483 0.57355383484 1.2791198849 -0.6672729289 0.32528365171 
2.1555071961 1.1309064513 -8.0426080455 -0.56701059574 -9.6602083614 -9.4091065712 -9.0220684019 -7.9593156181 -6.8048581085 
-9.2472177813 -9.1665949028 -8.6178181052 -2.0403131791 -8.1749977282 -3.628404404 -4.026636292 -5.0928349419 -9.3418609592 
-9.2099820456 -8.8605673649 -8.0144712892 -9.6640295599 -8.0621624373 -9.9291159159 -9.4439444369 -9.9671085765 -9.9293657472 
-9.4341323118 -9.4972773883 -8.5513953681 -9.469092335 -6.3875208701 -9.2689038736 -8.8606157612 -8.9974435377 -6.5396774211 
-8.7912476579 -8.6813838131 -9.4412915979 -8.0197988584 -7.9552860777 -8.895548816 -9.9708355645 -9.9065635111 -9.7179337397 
-9.9091318378 -9.591800845 -9.5519699336 -6.8501266299 -8.4337905012 -9.5636796889 -9.6658902197 -9.5107538859 -9.5882088367 
-9.601149553 -9.6290431467 -6.8659232572 -9.7545004213 -9.5005189597 -9.9427048093 -9.6406386197 -9.9092379392 -9.9930666897 
-9.8380268583 -9.9135105494 -9.9226919763 -9.8291675535 -9.9309460651 -9.9725522062 -9.8534142896 -9.6306011135 -9.8505994029 
-9.6307289667 -9.9189877248 -9.3592733754 -9.6757765801 -9.8060302626 -6.9651847895 -6.0614287946 -9.7009718676 -7.1363835286 
-9.2815594102 -9.0207714766 -9.8859609888 -9.9891182413 -9.6989549374 -9.5340311157 -9.9155889014 -9.9071814304 -9.8942397653 
-9.3406333582 -9.895496131 -9.9374917867 -9.0447678714 -9.3210026175 -9.3223468584 -8.8537972347 -8.7167541563 -9.9864716041 
1.0255309593 -4.7658653486 -9.4582525505 -9.9086238985 -9.8985953713 -9.6148124651 -9.9822308577 -9.7742076598 -9.9804496969 
-9.9536595507 -9.9096000283 -9.8475302745 -9.9623428585 -9.695625452 -9.839123887 -9.9106588911 -9.9241194841 -9.8799668739 
-9.7994233276 -9.9885872755 -9.9919644166 8.89363882 2.602872329 8.3538540759 3.3138164925 9.2965678648 9.5859878989 
6.0140313145 9.2166966339 8.5278829814 9.2477899398 8.3776750483 8.998645588 8.4937497484 8.5065294602 8.3916309811 
9.9079970792 8.5834514192 7.6443763035 8.6764237654 8.5132062263 9.2277671213 9.9300513179 9.877670817 9.9120130263 
9.9665440263 9.9409985358 9.8927992919 9.7310500752 9.8219227838 9.9546913551 9.9026404211 9.8425214862 9.8013641405 
9.8712280873 9.4275319392 9.506523324 9.847171975 9.6087918039 9.7017082754 9.2334333063 9.8982589209 9.8558169702 
9.9640740584 9.9882199307 9.9127118487 9.6738716059 8.8922524627 9.6758490941 9.6547951357 9.8718243293 9.9596555403 
9.8468699029 9.942161048 9.238781404 8.8923524757 9.9050086108 9.9332933045 9.9057801317 9.8418227392 9.8354018017 
9.7354322436 9.907930145 9.7380068087 9.7215977897 9.9030270464 9.9198414683 9.7213236547 9.9304271526 9.8922431714 
9.9652021023 9.8945284321 9.9592788462 9.9706865718 9.8053613914 9.9693100276 9.029419601 9.2880949987 9.8712670465 
8.9194798811 9.3217767664 9.2488022557 9.628691202 9.7227790278 9.7671979806 9.9639809586 9.9913669925 9.981164295 
9.9744607648 9.5794858859 9.9752195533 9.8288975825 7.9364105178 8.6729040809 9.7436826677 8.1783462812 8.8114626982 
9.7097113534 4.3013887231 8.1039068534 9.61243132 9.9600633394 9.9105506542 9.0783952574 9.8986771408 9.957131725 
9.9488816369 9.718650473 9.9931158861 9.8545858699 9.7623139159 9.9126653291 9.9670209625 9.8370412636 9.8369720035 
9.9540449872 9.9940132119 9.7793285884 9.9436084037 5.2675916985 8.4821717795 3.894603365 9.4189061205 4.6678771785 
3.1647880724 8.5374027599 4.5365589765 4.5900635174 4.2384399689 5.4227069495 5.1541900688 4.1076252015 6.8476760671 
2.3760866306 0.45118049871 0.42890407862 -0.41884876007 -1.1224588626 -0.043502351699 1.4715442423 -1.323158369 -1.0268658445 
-0.16022205731 0.039116364432 -2.7109335675 -3.9606398188 -3.8428323902 -3.8031841462 -2.1333057445 -0.37310181925 -1.1602591483 
-0.300153222 -2.1757896901 0.22439813083 1.0514117706 -1.4382078933 -0.39557330065 0.46808862931 -1.1686167651 -0.31342309602 
-1.3637874013 -2.4472784167 -1.7136175618 -2.7162353618 -2.9896485859 -3.7932451557 -4.1968130827 -2.8995151876 -2.4531002716 
-1.2194395879 0.99653969353 0.64316379832 0.099505921326 -2.1498395361 -2.1629100577 -2.4683969597 -0.75199595083 -2.2169054821 
-1.8345577756 -0.52365510148 -0.28709943214 -0.98877547704 -1.0021266657 0.7171393469 -1.3307246419 -0.7722790124 1.2245756037 
-1.9618947499 -0.92873393949 -1.9990428833 -0.1289474679 0.46227154183 -0.27644140091 -0.34783034747 1.924316028 4.5645429535 
0.60456421919 3.8587675954 4.177948006 4.5809250748 4.1227590574 3.6854552799 0.36929389801 0.32230994912 0.76656182154 
1.2892652245 -0.48035342219 -0.51777043548 -1.0344734211 0.67939810534 4.0298159764 4.3066124165 -1.4410434943 0.31896762189 
5.318043156 1.9249641949 -0.067178894784 -1.7810918808 -0.30956599459 0.81455983926 0.85102024899 5.552794593 0.061676754771 
0.061615705276 -0.68024087814 -0.20342363331 0.46331212335 -0.92901546786 0.17977691038 -0.86065988523 0.23325386057 -0.055398633585 
0.66136725129 -1.3224696444 -0.62496852088 0.64319701313 0.84622788222 4.1371748385 8.3143816455 2.1327417063 5.6588334153 
0.56942204439 1.9655540746 8.9384305212 0.83342458045 -1.7134399329 2.5536017901 1.6362413424 1.1725053579 5.1348682707 
4.7678663484 -1.0980441718 1.0128194428 2.6733207271 0.57899101996 -1.2628472728 0.98835272836 -2.3212608199 0.83197375023 
0.88993449846 -0.58747625311 0.038901761681 0.23854706035 -0.86897949928 -3.3432047958 -1.879166924 0.11825447985 -0.16857542682 
1.6158972474 -0.92815021667 -3.1650376218 0.44027710653 0.30726522144 0.87941374406 -0.89460510586 -2.2966094785 2.8318504441 
1.315921133 0.23021929974 0.8218176279 0.98989936618 0.32762309918 -1.1317043025 -1.8145672207 -1.8843570532 -1.1722473463 
-0.067285441341 0.75211950522 -0.27799796479 -1.6153964503 1.0937686899 -1.3384639193 -0.83731367132 -0.17178308686 0.021378790677 
-0.18368852954 -0.68392729106 1.7899480693 0.79984263805 1.6037414817 0.33046074249 0.65168194623 2.2050396976 1.9068402892 
0.43496238829 1.47366819 1.0227618541 1.5610542249 -0.98470808107 -0.81054463083 0.27266702606 -0.45423101924 0.046895214767 
0.84909099165 -1.8039595293 1.2077026223 2.2602743754 0.77341069689 3.6081027616 1.6848020247 -1.9299100674 -0.56142144524 
-1.066004963 -0.28946273947 0.68421080251 -1.2328161547 -0.97521289216 -0.86761724779 0.78760245969 2.6606640261 -1.9712469811 
0.57692221546 3.5382576441 -2.632187293 4.5606809284 0.18103961239 -0.5954564156 -0.85566506119 -0.25961903923 -0.040972962302 
0.023772939324 -0.68499958275 0.0058835782929 -0.41169158167 -1.7321322284 1.4234267783 -0.71619290306 -0.3713853298 0.81593471235 
-1.4794095053 -0.64664086076 1.4169346112 -1.9184344365 -2.4476643611 -2.5076803368 
