# vtk DataFile Version 5.1
vtk output
ASCII
DATASET POLYDATA
POINTS 356 float
0.54768 0.592608 0.346139 0.637232 0.699262 8.95229 0.702701 8.8214 0.430817 
0.759067 8.8031 8.99206 8.90009 0.709288 0.342575 8.97685 0.716759 9.13083 
8.97034 8.6207 0.34567 9.03893 8.712 9.1085 0.0307516 0.218259 1.25431 
-0.258834 -0.0420008 2.47976 -0.214357 -0.193483 4.15582 -0.295993 -0.167076 5.8262 
-0.226419 0.102769 7.3624 0.0902863 0.292256 8.37238 0.0573131 1.24951 0.242778 
-0.0268838 2.52341 -0.27209 -0.277473 4.24595 -0.372861 -0.325447 5.68125 -0.253956 
-0.150918 7.32759 0.0108428 0.331691 8.3535 -0.0340939 0.405782 8.94558 1.29498 
0.0785047 8.85074 2.79901 -0.113546 9.10968 4.27638 -0.038517 8.91585 5.58009 
0.0989918 8.96339 7.13303 0.386916 9.02244 8.25879 0.139793 1.24918 9.17273 
0.172678 2.58446 9.40033 -0.191204 4.22254 9.26175 -0.297019 5.69269 9.43201 
-0.0712012 7.35506 9.1738 0.383515 8.38727 9.4185 9.41641 0.0540826 1.01374 
9.51127 -0.249622 2.48845 9.62317 -0.333325 4.1418 9.54401 -0.303308 5.74785 
9.51911 -0.158668 7.32613 9.26581 0.201819 8.53397 9.2285 1.22366 0.224906 
9.05107 2.56149 -0.277513 9.37969 4.26627 -0.247701 9.30553 5.7165 -0.242151 
9.4747 7.23334 0.102367 9.25491 8.33441 0.0168935 9.16105 8.91417 1.16582 
9.26539 9.02998 2.56659 9.29623 8.97752 4.1561 9.43304 9.15344 5.70779 
9.2642 9.11233 7.22476 9.08996 8.86208 8.36022 9.22039 1.29989 9.09258 
9.08177 2.58989 9.38061 9.40781 4.23742 9.2892 9.21373 5.5832 9.34395 
9.29696 7.29887 9.1941 8.94052 8.18752 9.29305 1.4104 0.482988 -0.137625 
2.70421 0.126156 0.0295236 4.44406 -0.0783452 -0.220609 5.95043 -0.0767382 -0.189831 
7.2157 0.272888 -0.0872215 8.27988 0.350311 -0.0526445 1.43451 0.585301 9.29355 
2.74665 -0.0508084 9.19964 4.57959 -0.00980301 9.2337 5.86086 -0.0913346 9.27997 
7.28801 0.155197 9.20125 8.32382 0.468255 9.26691 1.24745 9.00757 -0.167146 
2.51753 9.50875 -0.147909 4.37667 9.51847 -0.420079 5.91115 9.42402 -0.445267 
7.43385 9.22049 -0.254516 8.5853 9.09714 -0.077458 1.30252 8.9948 9.52525 
2.54491 9.3766 9.42958 4.37896 9.3452 9.51088 5.92208 9.26398 9.52015 
7.39451 9.21377 9.56694 8.43089 8.90239 9.36919 -0.77527 0.295936 5.00551 
-1.21339 6.04362 1.64211 -1.14058 6.12849 8.0224 -0.418888 0.720692 7.87905 
-0.376391 0.804526 1.82657 -0.842104 3.16556 9.01799 0.00774259 8.24382 8.64143 
-0.613732 8.43041 6.6184 -0.726507 3.20989 0.465754 -0.627501 8.38174 3.38424 
0.00948175 8.2786 0.749166 -1.60301 5.87836 4.96757 -1.40899 2.84193 3.21555 
-1.45234 2.83712 6.6554 0.00719054 0.752766 8.87382 -0.669466 0.409539 6.53974 
-0.608892 0.363868 3.3828 0.0959243 0.840513 0.755635 -0.974658 4.74598 8.7821 
-0.716471 6.17345 8.82845 -0.738587 7.28231 8.41839 -0.917943 7.30221 7.23817 
-0.321601 8.27268 7.75114 -0.930472 4.79854 0.64796 -0.769284 6.24469 0.531002 
-1.02753 7.44735 2.56668 -0.651124 7.3208 1.16214 -0.336026 8.34082 1.85527 
-0.671995 8.32767 4.99096 -1.15348 7.28612 4.19857 -1.38551 5.9426 3.20944 
-1.31419 7.33086 5.7475 -1.42352 5.9725 6.63648 -1.51687 4.44365 2.42818 
-1.14158 3.00324 1.58088 -0.557584 1.3533 0.980733 -0.998609 1.06423 2.55397 
-1.19756 0.89516 4.14283 -1.49397 4.48832 7.40443 -1.02193 3.05133 7.88029 
-1.07044 0.964396 5.77278 -1.02051 1.08857 7.28479 -0.624171 1.26048 8.63104 
-1.61169 2.78148 4.95898 -1.48883 4.37633 5.83103 -1.6976 4.41869 4.16111 
9.42805 0.602469 4.96134 9.90209 5.90255 1.79609 9.93551 5.92929 7.91975 
9.62957 0.685205 7.99891 9.46592 0.734884 1.72469 9.79921 3.15907 8.85242 
9.45885 8.16886 8.77427 9.61022 8.22266 6.48016 9.77166 3.14115 0.456353 
9.60963 8.24635 3.42685 9.43986 8.23058 0.781371 10.1319 5.74996 4.94469 
9.79935 3.08488 3.23333 9.89109 3.06735 6.65418 9.30977 0.898444 8.82085 
9.40986 0.600212 6.48659 9.56333 0.517447 3.37338 9.40597 0.841123 0.583039 
9.78742 4.76356 8.61692 9.85354 6.09146 8.95746 9.65985 7.20575 8.35289 
10.0527 7.1585 7.17455 9.62049 8.23085 7.82028 9.79443 4.76899 0.754205 
9.81809 6.11354 0.594758 9.97171 7.22554 2.59417 9.69252 7.23901 1.11735 
9.60876 8.15604 1.89773 9.75864 8.25012 4.96813 9.78262 7.10718 4.18412 
10.0301 5.87463 3.31833 9.84998 7.12895 5.70226 9.93605 5.79266 6.55367 
10.1163 4.44084 2.49367 9.83414 3.04067 1.70074 9.7235 1.38255 0.943413 
9.89949 1.21212 2.62713 9.81222 1.2479 4.0937 10.144 4.49434 7.29626 
9.80316 3.06582 7.85796 9.89752 1.23888 5.79238 9.90271 1.12561 7.23384 
9.7226 1.38278 8.56916 9.91898 2.67766 4.95498 9.911 4.33813 5.77685 
9.94342 4.33943 4.18539 4.05307 -1.06729 1.51616 3.98423 -1.15158 8.16296 
8.85483 -0.766171 4.93798 8.84777 -0.38843 8.0302 8.61568 -0.267081 1.75769 
6.75644 -0.562948 8.85124 1.44176 0.047045 8.78777 1.20696 -0.841129 6.70777 
6.76233 -0.649601 0.321797 1.24315 -0.85905 3.29599 1.48951 0.0107507 0.685387 
4.11166 -1.44674 5.00792 6.86781 -1.32241 3.15112 6.95044 -1.24683 6.72122 
8.73682 0.252571 8.98735 8.84277 -0.475888 6.56673 8.79233 -0.665474 3.33142 
8.69951 0.115629 0.468085 5.31415 -0.827075 8.74289 3.97685 -0.646177 8.97672 
2.65077 -0.677078 8.50149 2.62859 -1.0767 7.33777 1.44012 -0.373253 7.90723 
5.38324 -0.770056 0.707964 3.95084 -0.577498 0.566779 2.65551 -0.965782 2.44825 
2.75418 -0.587923 1.08599 1.30466 -0.52617 1.66545 1.19787 -0.823306 5.02522 
2.56379 -1.36593 4.10569 4.11941 -1.45782 3.25443 2.62676 -1.29777 5.83766 
4.108 -1.32012 6.75831 5.48739 -1.2429 2.41621 6.83359 -0.904622 1.45174 
8.23147 -0.604633 0.716183 8.26089 -1.09838 2.43323 8.21571 -1.25558 4.13497 
5.5728 -1.21002 7.55244 6.88784 -0.906386 8.21126 8.35026 -1.19995 5.84819 
8.39035 -0.943422 7.42053 8.27023 -0.356137 8.67689 6.91172 -1.37679 5.05083 
5.54907 -1.67757 5.89422 5.63289 -1.46678 4.15503 4.03986 10.0172 1.83347 
4.00823 10.0815 7.79665 8.91173 9.4848 4.96324 8.83425 9.29074 7.8816 
8.967 9.58457 1.8263 6.83679 9.43326 8.77299 1.36874 9.18995 8.6478 
1.20064 9.61916 6.52101 6.85242 9.60859 0.581099 1.10515 9.63496 3.32988 
1.37751 9.12799 0.826453 4.16063 9.9579 4.97315 7.17584 9.92863 3.33291 
7.08526 9.9707 6.50205 8.84643 9.15427 8.87435 8.7648 9.26267 6.45562 
8.99891 9.68871 3.46301 8.73815 9.01447 0.731062 5.29339 9.85409 8.63681 
3.8269 9.61481 8.76669 2.59642 9.84496 8.42849 2.61341 9.72133 7.19256 
1.25978 9.49069 7.70757 5.31702 9.89077 0.827336 3.84941 9.63132 0.691654 
2.58815 9.71781 2.68958 2.58301 9.74853 1.11218 1.22227 9.52679 1.91347 
1.11459 9.49788 5.01872 2.60962 9.9998 4.21058 4.09944 10.1625 3.29013 
2.60947 10.0141 5.691 4.08344 10.0968 6.5342 5.5602 9.78136 2.58393 
6.91177 9.95436 1.80364 8.26654 9.5182 1.05852 8.27825 9.37058 2.61947 
8.34889 9.58127 4.23278 5.56774 9.90735 7.24402 6.95553 9.78147 7.82136 
8.44694 9.53718 5.69405 8.46437 9.62211 7.17769 8.33927 9.47387 8.56654 
7.08667 9.76669 5.00872 5.6174 10.1436 5.7372 5.66568 10.1675 4.13067 
1.61419 3.96485 -1.16892 7.99201 4.05401 -1.22349 5.12934 8.8773 -0.667469 
7.98103 8.66426 -0.465009 1.85805 8.70057 -0.525437 8.85221 6.74758 -0.713386 
8.7353 1.49767 -0.263949 6.5813 1.07791 -0.753795 0.535183 6.71249 -0.697015 
3.45189 1.11941 -0.9389 0.948094 1.46723 -0.215145 4.99945 4.02867 -1.68715 
3.29688 7.09566 -1.317 6.76579 7.04274 -1.27125 8.88359 8.57629 -0.11194 
6.59501 8.84208 -0.70645 3.43015 8.91944 -0.689499 0.885335 8.45505 0.0220917 
8.71884 5.20222 -0.810522 8.89108 3.78986 -1.00449 8.41201 2.59267 -0.776077 
7.27991 2.58915 -1.2393 7.8226 1.29346 -0.626915 0.582274 5.25943 -1.03114 
0.591417 3.75663 -0.737079 2.56214 2.54342 -1.19032 1.11579 2.62411 -0.948985 
1.83015 1.35543 -0.64923 5.14771 1.1459 -0.859538 4.10811 2.55829 -1.35057 
3.25089 4.16502 -1.70477 5.82339 2.62165 -1.31399 6.62357 4.08297 -1.27086 
2.38507 5.50965 -1.43998 1.58013 6.88091 -1.08914 1.01245 8.17126 -0.663109 
2.55522 8.3111 -1.12335 4.24905 8.46274 -1.17192 7.37929 5.49248 -1.42906 
8.04827 6.92482 -1.15091 5.8948 8.4977 -1.2669 7.4165 8.46343 -1.13864 
8.60195 8.15658 -0.473971 5.05552 7.09301 -1.4978 5.86233 5.61924 -1.62522 
4.16123 5.65071 -1.54694 1.75933 4.01253 9.9336 7.84782 4.03071 9.94029 
5.14585 8.87972 9.70526 7.96147 8.61056 9.65805 2.05173 8.58305 9.51379 
8.75984 6.70371 9.65256 8.61456 1.49547 9.45946 6.58111 1.22902 9.67052 
0.480347 6.67756 9.72338 3.48273 1.20295 9.65349 0.937823 1.41777 9.51057 
4.97361 4.11859 10.2131 3.32312 6.98176 10.1669 6.64913 6.87847 9.89352 
8.79663 8.53716 9.34554 6.62408 8.7791 9.76016 3.41926 8.82644 9.66573 
0.977071 8.4847 9.22504 8.65693 5.13377 9.75643 8.86535 3.87399 9.8724 
8.39059 2.7269 9.72844 7.25916 2.56054 10.0868 7.76427 1.32264 9.54958 
0.758835 5.12985 9.85932 0.570619 3.75158 10.0124 2.59491 2.5431 10.0351 
1.15631 2.63207 9.82685 2.00495 1.3806 9.67503 5.04829 1.08293 9.71977 
4.24653 2.69451 9.99682 3.32897 4.13568 9.97675 5.68678 2.67361 9.93587 
6.59247 4.12925 10.1352 2.49138 5.52282 10.2339 1.64432 6.81606 9.98018 
1.12164 8.14505 9.7693 2.65521 8.28038 10.0788 4.32828 8.36094 9.99535 
7.39827 5.47952 10.2417 7.9682 6.84059 10.041 5.87874 8.25299 10.0242 
7.29425 8.22044 9.95842 8.57063 8.10781 9.70446 5.02677 7.06539 10.2079 
5.77498 5.5595 10.1591 4.20085 5.56405 10.0867 
POLYGONS 709 2124
OFFSETS vtktypeint64
0 3 6 9 12 15 18 21 24 
27 30 33 36 39 42 45 48 51 
54 57 60 63 66 69 72 75 78 
81 84 87 90 93 96 99 102 105 
108 111 114 117 120 123 126 129 132 
135 138 141 144 147 150 153 156 159 
162 165 168 171 174 177 180 183 186 
189 192 195 198 201 204 207 210 213 
216 219 222 225 228 231 234 237 240 
243 246 249 252 255 258 261 264 267 
270 273 276 279 282 285 288 291 294 
297 300 303 306 309 312 315 318 321 
324 327 330 333 336 339 342 345 348 
351 354 357 360 363 366 369 372 375 
378 381 384 387 390 393 396 399 402 
405 408 411 414 417 420 423 426 429 
432 435 438 441 444 447 450 453 456 
459 462 465 468 471 474 477 480 483 
486 489 492 495 498 501 504 507 510 
513 516 519 522 525 528 531 534 537 
540 543 546 549 552 555 558 561 564 
567 570 573 576 579 582 585 588 591 
594 597 600 603 606 609 612 615 618 
621 624 627 630 633 636 639 642 645 
648 651 654 657 660 663 666 669 672 
[...]
CELL_DATA 708
SCALARS scalars double
LOOKUP_TABLE default
-6.1706144345 -7.4060696619 -6.0687425101 -6.611296823 -5.5162091256 -7.3706905831 -5.2846513432 -6.6725508455 -6.0837156481 
-4.6796885846 -3.4379267005 -4.6540732119 -3.8147101489 -1.2366020742 1.4422891424 1.1860316868 0.0096908890289 0.90778610802 
2.009118138 -1.3477438037 2.793959968 5.3782539452 3.9052177522 4.6324847986 7.5081377747 6.6617431643 6.1628403511 
5.6536571568 5.3469295164 2.996977808 1.5028838437 4.1054800213 2.1965307589 -1.492417585 -2.2598568375 0.74733284378 
-0.50065861327 0.17169056194 0.52960518421 3.0024174643 5.123132107 4.5615901814 4.4640080782 7.2371107288 6.4205717589 
6.6572653047 7.3273406341 7.6742966404 4.1973638327 2.8235151709 3.1639554857 1.7738845386 7.2388747255 3.9220136216 
7.4319496558 7.8995254804 4.1488255146 5.7928389422 6.5711295022 1.918427642 2.4728201026 2.0890880144 3.7552658161 
1.4329648311 2.8646699551 2.4138493387 2.4889464679 5.3948073657 4.2628501879 4.8154648318 0.2936201925 -0.78000713112 
-1.5112287368 -0.56481120918 -2.8789788568 -5.8539506425 -4.8024356569 -1.7278137936 -6.2206171537 -5.5087628547 -6.6739500298 
-6.1931144734 -6.9264483315 -1.593000806 -1.8612932248 -2.1924542689 0.74075629904 -1.8385199199 -0.58506993367 -1.7455528102 
-2.2231675132 -5.6390603324 -5.5739908209 -5.1820976063 -2.2694468394 -6.0539879186 -6.6372641999 -4.8072389165 -3.1714190628 
-1.4578485987 -1.0566805865 -0.89208052001 -4.8556575728 -2.4325681268 -1.6329083654 -2.4892753722 -0.24516370014 1.407714129 
-0.13665255636 0.44104946755 -1.1797321092 1.285307277 1.3812344717 1.3884848973 -0.041764006887 -1.0955418168 0.26021211931 
0.08491827549 -3.5303888481 -2.9822588611 -2.8987436936 1.4500343322 -1.9826507659 1.6560081953 -3.4853103759 -1.223637323 
0.096276763343 -2.1307233149 -0.04563882607 -2.2477357655 -4.1716671925 -0.74809941662 -0.72491598086 -2.2258982669 -0.82419148985 
0.85373173015 0.52680824822 0.97746563697 0.9854664465 1.277706196 3.786504705 1.9341082892 1.1410783304 3.6927194752 
4.9773191372 5.3807246549 5.4176819094 2.0265670204 1.9566139596 0.19271117743 3.3756855294 -1.3500421015 -1.8942671139 
-0.2635899962 0.61932208366 0.48284518522 -0.73947811527 0.59919079016 3.4951165583 2.0205921374 2.3888923909 3.9789435664 
4.2665435708 5.2038014803 4.306795941 3.8080630128 1.7492492968 1.3187599192 2.0271235806 0.26179185243 7.3858223727 
1.7581587755 2.6472266264 2.7603616203 2.3400463618 4.640232645 4.269614299 -0.018834305387 2.2598929498 1.0982767486 
3.0341847072 1.3731811579 -0.89273536473 -0.22791860506 2.2447506745 1.4519918759 0.86713086792 0.5181131134 0.62922882294 
-0.047251293344 -2.128231217 -0.85342530285 -0.96579429516 -4.7334531238 -2.159990764 0.34402197049 -1.2445878421 -2.6828144005 
-1.0153434034 -3.7798603529 -5.0730717798 0.46496601362 -0.4214122441 -0.18045851501 0.29680035105 -2.0500118269 0.078242378773 
-1.1679871961 0.050250109451 -2.1413075982 -2.6931994602 -6.4189773412 -1.46075345 -2.9989635514 -2.7323922608 -2.6376114267 
-2.7564879534 -0.44378807801 0.27714788309 0.083700550209 -5.5461657432 -0.047300379146 -0.28625358857 -0.44177183126 -1.1166938702 
1.5000924112 -0.8248967171 0.674325665 -1.8024095794 -0.95279935549 1.0637434573 0.013067509959 -1.4299775316 -0.52407398523 
-0.03742862969 -0.052759477101 -7.4073333182 -4.9051449258 -8.1732865281 -9.3704034064 -8.0058604802 -8.5141294591 -7.1965848153 
-8.164048847 -8.9868434105 -6.6768364303 -9.591508867 -5.4688591979 -3.5985241633 -3.4634793108 -5.8278775726 -8.4936784848 
-4.4857814426 -5.1327838994 -6.1432639469 -3.6701379306 -5.5622733515 -9.155674497 -8.2630642231 -8.6041269544 -8.7608937648 
-8.3886362506 -8.9627693841 -5.9505920105 -8.6508921335 -6.6119145383 -8.3831001995 -7.0019162236 -7.1028099902 -6.3650725773 
-4.7805591484 -4.8962608194 -8.8946296526 -7.4880116282 -7.9542598112 -8.2701616582 -9.2788583022 -9.5961250274 -8.3289679377 
-9.4984123608 -8.9156203221 -8.0782914235 -8.2611034146 -8.0231556566 -8.6524539913 -9.0220791486 -8.1393087698 -8.8180048455 
-8.1192141157 -7.7679784121 -8.6104670703 -9.1404531492 -8.5701018432 -9.4636988924 -9.114044956 -9.1449080245 -9.5612144289 
-9.9843146797 -9.5236245984 -9.6438430706 -9.9562329955 -9.8688389712 -9.8382419875 -9.9618691268 -9.5043087443 -9.3153963338 
-9.3916959509 -9.6168546132 -9.7488922257 -9.6824713722 -9.6184180563 -6.2771595751 -8.8021189547 -9.8958742871 -5.5613072455 
-8.268585921 -8.3432009335 -7.3172960673 -4.9241446435 -9.7040931308 -9.7027101302 -9.590406397 -9.4233711207 -9.6790481942 
-8.6400026387 -9.4642804413 -9.7905456247 -7.368695653 -7.7601316375 -6.1374995512 -5.2964774067 -6.5570558781 -8.0532073439 
-4.333852529 -5.7624466264 -8.5255230532 -9.6961641998 -8.7903320384 -7.7900050277 -9.9390583671 -9.9698581135 -9.9375660419 
-9.5408301458 -9.9273306867 -9.7721975524 -9.59471639 -9.9162798569 -9.9993370298 -9.7535997816 -9.8833012572 -9.88872963 
-9.9533627892 -9.6430512293 -9.8268711616 7.0409311793 4.6104988933 8.2339538262 9.7512247045 9.2060485096 7.3124709533 
6.8978567675 7.0466454141 3.812564122 8.168268576 3.6558755493 7.5160070509 5.731474232 7.2042414267 7.8512964893 
9.0350891187 9.0505328815 9.6792582991 8.7444598472 9.4044408755 8.4411720127 9.7300930627 8.5822929328 9.8570863694 
9.7381618596 8.8074452743 8.9593768233 8.5621238655 9.0393522416 9.4266435352 8.966955522 8.4400953164 9.03510995 
8.7176879311 9.3336988785 9.334800092 9.4490710644 9.4895099617 9.4526194315 9.7255047421 9.8143536179 9.9231866218 
8.5980942443 9.8856900243 8.2643608729 8.6643137054 9.2182346285 9.2962013614 8.3581161343 8.1636722947 8.9316591455 
9.4810225182 9.8170629508 9.9358545703 9.2858331814 8.8295558254 8.6354822874 9.7500893189 9.3610806384 9.1030380282 
9.6451388173 9.9200315059 9.6117133183 9.6879098541 9.9603185368 9.6855810486 9.6838243534 9.9944993254 9.5151376181 
9.5715895704 9.4645681924 9.902714575 9.5230344241 9.9364911722 9.936835908 9.4015387291 6.7192220757 9.1661205941 
7.0331020687 8.1397798383 8.2026718955 9.5075751615 9.7624819576 9.0522066352 9.4882743496 9.3367290323 9.890226309 
9.890278181 9.0796369898 9.9628684565 9.6072157901 9.1710144992 8.405402295 6.9586608678 9.6552110837 7.8627335138 
8.5270471306 5.6393964473 8.115798449 9.3797915373 9.7308108557 9.8089977878 9.8946796626 9.6449358725 9.7259555957 
9.8742701594 9.8714389753 9.92876529 9.9266629786 9.8637778224 9.6952539182 9.9001248088 9.7347949807 9.59821006 
9.911870893 9.721845079 9.7390818848 9.6569500471 3.7565904089 4.9643284825 7.5947647715 5.6826717986 6.4560717447 
3.6746594054 5.0081122253 5.8553496353 5.6182762631 5.9572075497 5.4546008498 4.3361535004 7.2861652973 2.8856725922 
0.55320162676 1.6394755719 1.7796033912 0.55561808859 -0.15962969381 -1.6003391433 0.37487884925 -1.7174170349 -2.849127413 
-3.6729327568 -2.6816708294 -5.4061756565 -4.9609121693 -3.7793472086 -3.203492584 -1.973335491 -2.465333247 -1.875736254 
-3.6619548597 -4.7256221179 1.8827513444 2.146699579 -1.8188177671 1.6124167592 0.42333771433 -1.730121296 -0.98010764846 
-2.9546615138 -4.3411972493 -3.1781724791 -6.1246910967 -2.7914641979 -3.9078772327 -2.9701377528 -4.9674056651 -5.8844800618 
-4.3866418112 -0.070636848236 -0.72102107265 -1.1596543147 -3.7069592286 -4.5767592866 -5.1957156651 -2.3214302648 -4.8387752166 
-4.7094350225 -1.7696791643 -2.1895405814 -2.6331835474 -3.2285385048 -1.0862289484 -0.059684205309 0.014156728575 -2.4002850891 
-3.1670844682 -2.9543862905 -3.0736255647 -0.65266742277 1.9653429819 1.6169493735 1.0962318255 2.5794685658 5.413332845 
1.3317500255 9.0804994766 6.2959579662 5.5143379227 6.5250628058 6.2763191287 0.71874431469 1.4167195883 1.7945944882 
0.53443181495 1.4190648946 0.13674886827 -0.17724211696 0.53905096666 6.37074339 6.7093733071 8.1036557034 2.3869585536 
3.4251853394 6.2139678229 7.9219197825 3.4730429721 2.3092640749 0.48045823101 2.2001567406 8.1320708754 0.82721821766 
1.7392070824 1.9708155041 1.5473145295 -1.2819907846 -0.9821363406 -1.7013237648 1.1644672018 0.95045833127 -0.12242619194 
1.4840085816 0.63073255297 0.9676028673 1.5806352818 0.61717491958 4.1445384394 4.152230514 3.6406180812 4.2702160529 
4.4644463396 4.0757901352 4.0068602088 4.4356172242 3.4581957069 3.9896069346 0.71724992406 3.0211113141 6.4502214436 
0.34169660576 2.0828678365 1.0484569807 1.7668297137 0.37881602928 0.15034361373 -1.1548948793 0.48640995361 -0.27461457817 
-1.8672335874 -3.5254886118 -2.6119741405 -3.2906732334 -2.9669747568 -2.548254015 -2.2235844727 -1.4198562879 -1.4232670831 
-1.1798714338 -2.7152783438 -1.430072199 2.0082559449 2.1312157949 1.0449409463 0.15437876646 -1.3438459405 1.7044849612 
-0.13584920508 -2.8630273037 -2.2257692137 -2.2065692916 -3.351628259 -3.3473616732 -5.3482734723 -4.492611849 -3.6433414851 
-3.2697991768 -1.6702206993 -1.1626639046 -3.3340988249 -1.0508899154 -1.4823911355 -3.1323851025 -3.3649305168 -2.4590040169 
-3.8090301538 -3.8496603549 0.51051608913 -0.77053241775 0.27073728007 -2.4509388657 -1.6506654681 0.35885708971 -0.73336942219 
-1.6956815766 -1.526858838 -1.9638833586 -1.5010968732 -1.03189454 0.45915721762 1.1420534818 0.4628184148 -0.21792314779 
2.4363863647 0.90795816031 8.516026588 5.142732868 4.3964879081 5.928540708 7.6525728684 0.1008902467 0.66812724923 
0.7482453688 -0.90588861964 1.8749264582 0.30089411262 -0.11733735672 -0.69689560535 4.4612084827 3.3940999757 3.8850229975 
0.53523982885 4.1248079565 3.4175154346 1.4758639521 1.9113581817 0.267437727 0.052905053116 1.5847726215 4.6846035737 
0.14188430962 1.4554990803 1.5800421023 2.2178632082 -1.6011670973 0.10770262406 -0.4697202829 -0.03219465978 0.10545499066 
-1.8932164169 -1.2984010926 0.62760430487 -0.69164960045 0.66251171807 -0.55188569636 
