# vtk DataFile Version 5.1
vtk output
ASCII
DATASET POLYDATA
POINTS 356 float
0.486572 0.564145 0.316937 0.601926 0.644794 9.05227 0.775123 8.69645 0.400201 
0.742385 8.71756 8.87066 8.9469 0.631748 0.171902 8.79808 0.857788 8.91173 
8.99789 8.6644 0.343765 8.90748 8.67263 8.97739 0.0635398 0.1423 1.1862 
-0.198361 -0.0248291 2.50683 -0.297962 -0.296573 4.15114 -0.370931 -0.313192 5.79677 
-0.186939 0.0829298 7.2748 0.166926 0.418985 8.2093 0.0530463 1.31848 0.286299 
-0.0285131 2.49066 -0.384755 -0.353994 4.2296 -0.387459 -0.261596 5.76845 -0.151206 
-0.0054481 7.26947 0.0332941 0.329316 8.3095 -0.0439774 0.331806 8.93733 1.28251 
0.0192609 8.88748 2.71962 -0.141076 8.97243 4.29855 -0.0609464 8.96326 5.6086 
0.102933 8.82568 7.06196 0.441931 8.90945 8.20655 0.121416 1.32132 9.02067 
0.154445 2.47021 9.43287 -0.296589 4.18183 9.30845 -0.114237 5.7391 9.31185 
-0.0775326 7.30284 9.14701 0.488168 8.28895 9.2316 9.32477 0.165549 1.03753 
9.48484 -0.247392 2.49046 9.53302 -0.327329 4.13883 9.59883 -0.385766 5.75072 
9.53507 -0.21903 7.35717 9.28087 0.220698 8.49488 9.21098 1.24766 0.263132 
9.07401 2.46507 -0.208911 9.30044 4.14756 -0.249415 9.26366 5.70614 -0.257227 
9.20451 7.18501 0.119485 9.14429 8.2203 0.0812635 9.1446 8.90792 1.23941 
9.33457 9.03903 2.56694 9.38359 9.02141 4.17665 9.39665 9.09784 5.71698 
9.3326 9.06282 7.15975 8.96871 8.71928 8.32943 9.22007 1.25966 9.06547 
8.99395 2.47095 9.23095 9.29385 4.18434 9.30158 9.1838 5.66826 9.35824 
9.31121 7.23285 9.08809 9.02766 8.06741 9.26253 1.47377 0.627017 -0.0143396 
2.67731 -0.0139717 -0.0714172 4.47595 0.026959 -0.227927 5.91844 -0.0574242 -0.2949 
7.14725 0.154893 -0.118305 8.34681 0.32408 -0.0914633 1.53309 0.673769 9.21599 
2.6501 -0.0698352 9.12916 4.52927 -0.0607285 9.20284 5.88894 -0.0524592 9.14054 
7.23311 0.168501 9.30439 8.28816 0.39824 9.22461 1.36153 8.95848 -0.22225 
2.55574 9.3269 -0.0678397 4.40202 9.36901 -0.352895 5.93098 9.37461 -0.453381 
7.34783 9.1448 -0.281872 8.43346 8.90011 0.0743829 1.37901 8.85883 9.43287 
2.55044 9.39559 9.46134 4.41718 9.37035 9.52722 5.9316 9.28466 9.51627 
7.40256 9.15534 9.52779 8.36769 8.70114 9.15941 -0.825635 0.305982 4.9777 
-1.17375 6.03106 1.73313 -1.07147 6.07822 7.84303 -0.619946 0.561827 7.92928 
-0.454912 0.697085 1.82774 -0.692945 3.21889 8.76502 0.0552354 8.08577 8.57533 
-0.648357 8.30422 6.56191 -0.645759 3.27364 0.497444 -0.623594 8.29442 3.36119 
0.13107 8.07946 0.81536 -1.48108 5.85567 4.99947 -1.44509 2.85763 3.19665 
-1.56289 2.88141 6.58069 -0.0236709 0.731413 8.85452 -0.739314 0.380099 6.58453 
-0.686662 0.352783 3.35905 0.155236 0.965177 0.801442 -0.934219 4.80792 8.65206 
-0.894747 6.25656 8.84362 -0.674966 7.22004 8.29271 -1.03245 7.28145 7.2255 
-0.283789 8.24856 7.7296 -1.05842 4.82359 0.644345 -0.851748 6.28594 0.619988 
-0.982613 7.34486 2.5365 -0.64481 7.31001 1.15231 -0.341757 8.2328 1.90878 
-0.775858 8.23526 4.95993 -1.23951 7.30317 4.1666 -1.55532 5.91603 3.26434 
-1.23763 7.31226 5.72232 -1.57754 5.96151 6.61545 -1.45242 4.50354 2.45552 
-1.20573 3.04539 1.58445 -0.693055 1.31933 0.987595 -1.16575 1.08425 2.52995 
-1.24895 0.878629 4.16666 -1.51018 4.52248 7.36395 -1.20041 3.0206 7.9505 
-1.27187 0.895778 5.75347 -1.00679 1.10625 7.24421 -0.542891 1.36385 8.47624 
-1.54975 2.81447 4.98449 -1.6179 4.38377 5.81419 -1.71445 4.4141 4.13696 
9.46576 0.589982 4.87741 9.77798 5.90324 1.74811 9.86992 5.93274 7.79521 
9.60648 0.70076 7.93469 9.40711 0.720174 1.6951 9.79013 3.11402 8.84501 
9.37855 8.08623 8.67303 9.53327 8.09841 6.46397 9.83994 3.15004 0.468408 
9.62517 8.17771 3.39623 9.30943 8.08921 0.734213 10.1641 5.78651 4.93132 
10.0223 3.03612 3.24183 10.0382 2.99767 6.60993 9.09521 0.918698 8.70799 
9.51097 0.511258 6.51651 9.5033 0.542732 3.3523 9.31605 0.882192 0.639352 
9.81857 4.75865 8.64744 9.78129 6.09037 8.77174 9.59213 7.16197 8.35516 
9.99655 7.13944 7.11891 9.6317 8.23035 7.77265 9.93469 4.7224 0.825969 
9.75552 6.15614 0.594557 9.94726 7.20206 2.63562 9.77621 7.205 1.14501 
9.44635 8.08704 1.81702 9.67001 8.18892 4.99995 9.77061 7.12385 4.18676 
10.0732 5.86529 3.34941 9.95907 7.08174 5.74438 9.79571 5.79585 6.55451 
10.1051 4.47169 2.53903 9.80406 3.07295 1.70792 9.73795 1.45869 0.956312 
9.99275 1.23483 2.57898 9.97065 1.24409 4.13596 10.0961 4.46571 7.20287 
9.71025 3.15068 7.78552 9.80441 1.22001 5.81134 9.7488 1.19215 7.17809 
9.61296 1.34838 8.44236 9.86869 2.72064 4.95002 10.1083 4.40278 5.80706 
9.89207 4.30814 4.18913 4.00633 -1.08954 1.5321 4.034 -0.998629 8.09445 
8.79639 -0.78147 4.95555 8.67425 -0.165251 7.94221 8.74537 -0.362733 1.69766 
6.78691 -0.5955 8.7101 1.47772 -0.0489422 8.73594 1.2586 -0.840807 6.64856 
6.74289 -0.549276 0.518179 1.29579 -0.785678 3.32623 1.46712 -0.0378983 0.628078 
4.09569 -1.62052 5.04147 6.83601 -1.36163 3.21314 6.88691 -1.38761 6.72322 
8.61498 0.335987 8.77842 8.76981 -0.526575 6.56466 8.78906 -0.638532 3.28607 
8.55035 0.261632 0.624798 5.32121 -0.747901 8.6946 3.9617 -0.644377 8.78068 
2.69552 -0.658217 8.3132 2.67001 -1.05881 7.30536 1.30621 -0.541202 7.94156 
5.38641 -0.779154 0.652202 3.96821 -0.572478 0.536368 2.65244 -1.04239 2.44483 
2.69299 -0.725954 1.05316 1.32924 -0.484576 1.7606 1.21106 -0.852336 5.00282 
2.56675 -1.40154 4.09696 4.1202 -1.48353 3.27006 2.58895 -1.34259 5.80563 
4.04375 -1.4053 6.7281 5.47044 -1.40371 2.34707 6.80162 -1.03986 1.42895 
8.17325 -0.509928 0.724915 8.19715 -1.12287 2.38668 8.30887 -1.30933 4.12064 
5.50576 -1.28392 7.51748 6.80846 -0.948525 8.04836 8.31251 -1.25574 5.84048 
8.34197 -0.969021 7.44732 8.22606 -0.277972 8.5884 6.86478 -1.54278 5.07546 
5.52704 -1.60598 5.89714 5.56227 -1.62011 4.14022 3.9755 10.1755 1.86737 
3.94696 10.1251 7.72458 8.89937 9.35957 4.87686 8.78168 9.28132 7.74781 
8.83791 9.39474 1.8315 6.86241 9.47962 8.77458 1.40325 9.06028 8.57913 
1.16252 9.61865 6.54964 6.81887 9.56013 0.587335 1.0322 9.59728 3.33525 
1.3239 9.12819 0.805099 4.12435 9.93018 4.94923 7.07963 9.98358 3.32803 
7.05611 9.99479 6.4977 8.70278 9.13347 8.81719 8.71871 9.24374 6.58232 
8.85948 9.37841 3.44607 8.71123 9.06252 0.66541 5.33447 9.95129 8.55655 
3.81179 9.63156 8.69269 2.57271 9.81426 8.39939 2.56908 9.85734 7.09354 
1.256 9.513 7.6448 5.3269 10.0357 0.848549 3.80857 9.6615 0.68071 
2.48769 9.72663 2.66717 2.53963 9.75291 1.15473 1.239 9.42382 1.93515 
1.02331 9.47218 4.98691 2.57716 10.0688 4.24529 4.05378 10.1423 3.28744 
2.53715 10.065 5.63814 4.08247 10.2138 6.5441 5.55661 9.88056 2.57857 
6.90908 9.87908 1.83921 8.21887 9.58358 0.982129 8.32108 9.62 2.62152 
8.30627 9.73958 4.20391 5.5423 9.7967 7.1536 6.93983 9.92788 7.73744 
8.37763 9.68115 5.6416 8.30477 9.59782 7.10623 8.17957 9.43292 8.52857 
7.05531 9.81375 4.99891 5.58662 10.1909 5.66309 5.62261 10.1722 4.18075 
1.58725 3.90452 -1.33332 7.86305 4.0306 -1.25657 5.1159 8.98831 -0.902158 
8.05218 8.66963 -0.464848 1.84717 8.64264 -0.589003 8.87521 6.69122 -0.766184 
8.56249 1.5614 -0.280958 6.59714 1.09366 -0.864709 0.523384 6.68985 -0.801115 
3.47429 1.17626 -0.85108 0.883587 1.38337 -0.288076 4.96326 4.06302 -1.74917 
3.2628 6.99637 -1.41233 6.76838 7.07263 -1.49511 8.57583 8.39607 0.0509078 
6.67033 8.88681 -0.914847 3.42517 8.86628 -0.747463 0.954979 8.4179 -0.0230604 
8.63245 5.2185 -1.02919 8.77876 3.75024 -0.893157 8.35382 2.66369 -0.970134 
7.22637 2.60407 -1.21892 7.78401 1.15274 -0.721719 0.611772 5.25424 -0.991542 
0.636191 3.81158 -0.673109 2.53372 2.51907 -1.2073 1.14934 2.5985 -0.964934 
1.87389 1.36081 -0.740921 5.11946 1.12118 -0.962661 4.0987 2.56597 -1.4202 
3.31205 4.08955 -1.5589 5.81642 2.58435 -1.44702 6.61 4.0636 -1.66378 
2.36793 5.4393 -1.53482 1.61341 6.86158 -1.20019 1.04785 8.05804 -0.604522 
2.63169 8.26956 -1.03755 4.25391 8.45959 -1.30909 7.27249 5.46748 -1.52456 
7.95347 6.89447 -1.18649 5.87467 8.29176 -1.15856 7.33677 8.34142 -1.00414 
8.59546 8.10258 -0.520967 5.04746 7.05876 -1.71675 5.8134 5.58245 -1.74711 
4.08716 5.64575 -1.77611 1.71577 3.94179 10.0942 7.79915 4.04063 9.86654 
5.11703 8.77156 9.83654 7.81252 8.62271 9.7515 1.91859 8.54685 9.46566 
8.75657 6.67686 9.75049 8.61844 1.4818 9.61674 6.53769 1.22967 9.69221 
0.556264 6.68565 9.8819 3.48478 1.20539 9.63583 0.93389 1.43735 9.46486 
5.0051 4.13426 10.307 3.26783 6.83103 10.0949 6.68211 6.775 10.016 
8.68514 8.41256 9.28812 6.60929 8.66861 9.76248 3.50523 8.75055 9.57472 
0.94837 8.45467 9.30599 8.62447 5.10891 9.80231 8.77063 3.76911 9.86728 
8.23238 2.74643 9.7184 7.21186 2.5612 10.0787 7.73487 1.38476 9.41615 
0.782057 5.20832 9.93013 0.488932 3.7481 9.7529 2.62604 2.4873 10.1497 
1.25229 2.67233 9.72058 2.0189 1.34666 9.69395 5.08397 1.00103 9.793 
4.2761 2.6406 10.0472 3.31229 4.08466 10.1205 5.67632 2.6713 9.97306 
6.595 4.06983 10.2275 2.50355 5.45217 10.267 1.80581 6.77119 9.92699 
1.12633 7.97086 9.68771 2.69527 8.22738 9.98261 4.22317 8.25016 10.0207 
7.32124 5.42697 10.2822 7.8696 6.83144 9.99718 5.90662 8.17801 10.0797 
7.26425 8.13199 9.9676 8.42954 8.00034 9.52967 5.06842 7.15568 10.1609 
5.74441 5.59078 10.1845 4.18276 5.57754 10.1378 
POLYGONS 709 2124
OFFSETS vtktypeint64
0 3 6 9 12 15 18 21 24 
27 30 33 36 39 42 45 48 51 
54 57 60 63 66 69 72 75 78 
81 84 87 90 93 96 99 102 105 
108 111 114 117 120 123 126 129 132 
135 138 141 144 147 150 153 156 159 
162 165 168 171 174 177 180 183 186 
189 192 195 198 201 204 207 210 213 
216 219 222 225 228 231 234 237 240 
243 246 249 252 255 258 261 264 267 
270 273 276 279 282 285 288 291 294 
297 300 303 306 309 312 315 318 321 
324 327 330 333 336 339 342 345 348 
351 354 357 360 363 366 369 372 375 
378 381 384 387 390 393 396 399 402 
405 408 411 414 417 420 423 426 429 
432 435 438 441 444 447 450 453 456 
459 462 465 468 471 474 477 480 483 
486 489 492 495 498 501 504 507 510 
513 516 519 522 525 528 531 534 537 
540 543 546 549 552 555 558 561 564 
567 570 573 576 579 582 585 588 591 
594 597 600 603 606 609 612 615 618 
621 624 627 630 633 636 639 642 645 
648 651 654 657 660 663 666 669 672 
675 678 681 684 687 690 693 696 699 
[...]
CELL_DATA 708
SCALARS scalars double
LOOKUP_TABLE default
-4.9904935833 -8.9966479319 -5.8161190778 -6.7026858078 -5.9768326659 -6.2596040075 -8.5341191456 -6.2251523745 -6.368211015 
-6.0428318803 -5.1003961163 -3.662922305 -1.299613562 -2.4808325854 0.039263799959 -0.939190736 -1.2694183765 -0.66296854249 
1.0374784278 0.77687640931 1.9509809226 5.0969315894 4.9171168821 4.7933410088 6.4869245427 7.1596729914 6.7317674817 
5.3884182043 5.3030565611 4.2980269197 2.8419177582 4.7214470289 4.4777145405 -1.6368010109 -1.059763566 1.3154066749 
-1.8285433203 1.4070830006 0.96412239688 2.7876752697 4.8493346947 5.6160820728 4.6312608162 6.7312193768 4.1335428944 
4.4465611062 6.1164651009 6.3153135309 5.392985319 2.9416238924 4.0130125909 2.038710753 7.3437203942 2.9400320877 
6.8749716681 7.6585082691 4.4619534125 6.2496861008 6.7692405828 2.6754577023 1.9156724395 3.0582701897 4.219527177 
1.9878564454 2.1182809797 3.2451209051 1.6474458475 4.7904676287 4.8812545648 4.4641384027 0.84782749381 -1.8286758423 
-0.74135087011 -0.34604276546 -4.213911012 -4.9613450821 -5.5318816684 -1.3072934092 -7.8321893418 -6.4912473841 -6.2829398662 
-6.3458084133 -6.7359232556 -0.95768477339 -0.97129840011 -1.6962893146 1.4171077725 -0.95014358071 -0.88341172876 -0.26499587084 
-2.2358025304 -5.8785929246 -6.2526063541 -5.0671814963 -1.6506095344 -6.1068715271 -1.7053757843 -1.8334702069 -0.60722407446 
-1.5195116549 -1.9477444284 -2.3235565176 -5.990868566 -1.4415521687 -1.2802351339 -1.4829346839 -0.010997804471 1.4684121492 
0.57607162536 -0.10153612559 -0.75284820611 1.3218515832 0.64913152083 0.1570912834 1.2486729484 -1.3423244575 -0.39929324468 
-0.72856348131 -2.5480660388 -0.94650735262 -1.6908210166 0.70074191618 -1.121700579 1.0256642765 -2.6326137038 -2.5501327258 
0.080863677707 -2.7241869608 -0.13261269108 -2.8747561417 -2.6981643471 0.82614040845 0.19744714912 -0.45004094695 -1.2473292966 
0.66222274651 0.72501765812 0.32253721996 0.7360057252 1.2104999341 3.7238072103 1.3193720399 3.8333473122 2.7088631896 
5.524865863 5.8398887416 6.281930619 1.8025861058 1.9513400487 0.95743913552 2.8368595407 -1.125952411 -2.2455785008 
1.2529102311 0.70813459166 0.17641185079 0.25165485797 -0.51439117574 3.9802113968 4.2234335337 4.162147089 2.9717671099 
2.6678531418 3.3156821764 2.3898267384 2.0992667139 2.26235305 -0.085182724245 2.335816732 1.7505179155 3.8917143807 
0.47750762597 2.1045983859 1.7028652399 2.2452383688 2.9965455392 3.0466149559 -0.041897288138 2.6020868673 1.562360776 
4.111662116 0.15507582189 -1.2917369953 -1.3910923969 2.2310060447 3.182828707 1.1559905841 1.7890527486 1.8507806903 
-0.6574541828 -1.2649340935 -1.4117001595 -1.3172756518 -2.7794400379 -2.9438815275 -0.21664995693 -3.019363142 -3.2613511319 
-2.466871221 -5.6605594008 -5.6251436855 0.35266600615 -0.52807454046 0.29859249184 0.81924183489 -1.5202647253 -0.26373949401 
-1.8309322594 -1.4673387654 -1.3229028077 -1.3708204032 -3.5609204892 -2.3651987322 -1.1635145049 -1.0304261376 -7.0943870377 
-6.2394187516 -0.81971441935 -0.66780924188 -0.1409690346 -5.5526333929 -0.91849443266 0.17595639891 0.14163845475 -0.43733710096 
1.8293305599 0.99893830023 2.1967330825 0.057476108546 -1.4938821321 1.2526642307 -0.4893050248 -1.1867334957 0.30968347877 
-0.97990080305 -0.75793298862 -8.8940517037 -3.3803723528 -8.398809811 -9.5642847834 -8.2447778605 -8.7455543185 -8.9490924651 
-7.523375078 -8.9645313493 -7.451158795 -8.4828196231 -3.1402103189 -8.2562316138 -8.3229285395 -6.8093407158 -8.8957737674 
-5.9000782841 -6.1586444603 -5.679117355 -5.6680318188 -5.6297159851 -9.1387340054 -8.0880632592 -9.4090701929 -9.1337526634 
-8.6251233719 -7.3061927249 -7.7409570148 -7.0319730662 -5.1605496269 -8.846030047 -7.9944183973 -7.9996056687 -5.4177692402 
-7.2049658151 -7.0289307597 -8.8516854397 -8.1421468482 -7.7256264401 -7.6595094151 -9.5734591851 -9.3611253707 -8.5653488246 
-9.3436371907 -9.1281184345 -8.8543604836 -6.8066809582 -7.8565103379 -9.1139670214 -9.1302343538 -8.1305862388 -8.8596107845 
-8.4013199552 -7.7410161147 -6.4249928073 -9.4881213441 -8.5909677859 -9.2361913566 -9.4647843604 -9.4247482512 -9.6292303784 
-9.9251420452 -9.6168444228 -9.5218293839 -9.8526363547 -9.5160007452 -9.6770373494 -9.8587724485 -9.3893805863 -9.1154931654 
-9.3453084021 -9.3842676786 -8.7318303717 -9.7351026122 -9.3789720575 -7.0699907858 -8.2351242707 -9.880628613 -4.5062466216 
-8.2731957309 -7.7454794987 -6.7180124408 -7.1287741211 -9.8189219819 -8.7407534425 -9.2198689108 -9.1086333459 -9.4121143148 
-8.7783932053 -9.0473432446 -9.6636449042 -7.4130092783 -5.9547818973 -5.9242190486 -6.7345936676 -4.4354423499 -5.5190924156 
-3.9772177967 -5.6360902909 -8.5593815339 -9.4124359084 -8.3032561662 -6.9535329826 -9.8491644118 -9.9061447218 -9.8338689668 
-9.7998055269 -9.5596710443 -9.9015138404 -9.8059888376 -9.8615403291 -9.9584972833 -9.7260803417 -9.9268334585 -9.9995281944 
-9.8680105637 -9.9040502445 -9.9856600231 6.3015484651 4.3654757029 8.6083667052 9.6700825345 8.6681497733 8.4935189473 
6.2990660584 8.3193730135 8.2096242073 8.6288290457 6.6478138895 7.4242202137 7.314160526 7.0427953106 6.3112242228 
8.8930465106 9.0529568624 9.3502983117 8.5842261474 9.5483928479 8.348746518 9.781843866 7.8146590818 9.7174935716 
9.7005763868 8.2258378577 8.3128363847 8.781356766 8.3654251403 8.8925247772 8.8936876344 8.1942258367 9.2878753656 
9.0299228375 9.258146726 9.191575742 9.1116312455 9.068458881 8.8471623587 9.127760676 9.583740918 9.7774393794 
8.8711145875 9.7062956149 8.4222786958 9.1628563986 8.2909878539 8.3916948657 8.9783715584 8.53448912 8.7873092751 
9.1877891819 9.4265392783 9.4878803767 9.4807430454 8.9437939207 8.2401339163 9.6389467232 9.0218845349 9.116102833 
9.6209485682 9.9161978724 9.63890748 9.6527722587 9.8455972231 9.7601976252 9.7370462164 9.9620501695 9.3775095641 
9.4195071383 9.3226345764 9.8583921329 9.3310413348 9.9720723393 9.9545694498 7.871797672 7.3469898006 9.6743364553 
7.433528822 8.6712803445 8.3214043667 8.7217254565 9.3795684012 9.6861207383 9.6666572686 9.7947896742 9.8154312709 
9.9285840091 8.8993479895 9.9224838024 9.5989328875 8.5261035851 8.8484706885 7.0874574673 9.3738158311 7.4314609819 
9.0154046974 4.31711647 6.4432902104 9.0970427248 9.6038981167 9.4689836713 8.4603184469 9.8062788618 9.870849789 
9.9595253974 9.6675590788 9.6695555983 9.8028340298 9.5230668008 9.8343737982 9.8717080638 9.8401619758 9.7966744733 
9.8570211732 9.771984111 9.7336886684 9.6923479606 5.7284038428 1.7636847729 6.0787727362 8.1516814709 5.2665830387 
7.9426656518 7.4318282413 7.2866677777 7.450932774 6.682331377 6.7365777034 4.4939357439 8.0509955677 3.594551651 
0.17951267872 -0.51132980306 0.17927108736 1.412438049 -0.16520189906 -1.2247930799 0.14953458295 -1.2375096781 -3.4330996412 
-2.768584195 -2.3889424093 -5.7103297597 -5.597590656 -2.1417757707 -2.2029761546 -2.4752804554 -0.70400156795 -3.1159982551 
-2.1648257532 -1.3857147474 2.0540025443 3.4921044848 -1.892012879 0.56039435258 1.542443137 -2.0748591588 -2.1056311923 
-3.2110394725 -3.8088400854 -2.7681798968 -5.1726386474 -5.5155835966 -3.3043138366 -4.9489228542 -5.63799306 -4.8880367682 
-3.8566672653 -0.41935700488 0.27767553608 -0.57451687689 -4.6072460142 -4.6654090502 -5.3028289397 -3.3069221605 -5.2507592457 
-5.2731417437 -1.6466064424 -1.4906649446 -1.5555118935 -2.8697636729 -1.7157054117 -1.5929535662 -2.2595301332 -2.0741057078 
-3.3770498901 -3.4884898833 -3.0928382906 0.26282921942 1.0129867449 1.5656544433 0.64120471544 1.2763034894 4.6287942288 
1.9257660003 8.3430005573 6.500679529 7.2844912903 6.3003880902 4.2081668384 2.1419562233 2.6902843347 3.1361004141 
-0.37454799213 1.0078871278 0.89674231491 0.54243240149 3.2476707539 5.4476128811 6.457784143 2.694710344 2.4862659097 
2.7488717359 4.5562419147 5.4821592367 8.5605725492 2.3829182067 2.3581864261 2.7678799011 4.6362286795 3.4321594576 
1.8446535194 3.4035284866 0.66953206939 -0.50857915577 -0.27616362459 0.25900106374 1.6660597882 -0.80721028596 -0.67828567217 
-0.73277603331 -0.078828867151 1.5734345072 0.86000637766 0.29834889133 4.0210565196 6.2941734584 3.9096117506 3.9712650087 
4.5153199357 4.8978487711 6.3794362628 4.2606579178 1.249969984 3.2333446053 0.35147764203 3.7218154826 7.163756895 
4.8994600843 -0.50195708372 0.49860312399 1.0985154457 0.54821976024 -0.28412909378 -1.61542242 0.15234023223 0.032956648621 
-1.403110671 -3.8617283382 -3.2731692337 -1.8798525024 -1.3329357812 -4.1970805388 -2.8497002789 0.27075220071 -1.2547625194 
1.059616241 -3.4158262155 -6.4587590969 0.89811391153 3.5475614039 -0.65236957552 -0.64279783448 0.61612985516 -0.060940885321 
-1.6075968981 -3.7150635988 -1.4428228919 -2.0175856266 -3.4912937808 -4.5417348082 -2.6706760643 -4.0810957077 -4.4730722245 
-3.6990906229 -1.4113706821 -1.9480566635 -1.8316017684 -0.75937914126 -2.947209493 -4.4727516644 -3.7252006417 -3.1913520043 
-4.2318267429 -5.0230820413 0.26371819569 -1.2031212731 -0.087235665341 -2.3846794933 -2.0460335439 0.23117459644 -1.291331356 
-1.9760581969 -1.3828964663 -2.1061687044 -1.2635913451 -0.13094927817 0.26825159462 1.8799872192 1.389119721 2.1229637424 
2.5185780779 0.69558299361 5.1414544085 4.1928776387 4.1009557931 6.4185224426 6.2013448568 0.32530485232 1.696390523 
0.83139301237 -1.7682266669 1.9652386948 0.09127414919 0.50397541223 0.002679451224 4.5041972302 3.9369704298 4.4817017082 
2.7484972292 4.7087709756 0.17009567981 4.4776783057 2.937961349 2.2820762969 0.29458698878 1.9021641003 3.5921337708 
0.048794928838 0.8710425997 1.0386160543 1.7391050093 -1.8667341929 0.57372241426 -0.067249293629 0.85205288133 0.53134080778 
-1.1032140743 -0.58734154459 0.99154546302 0.066264293341 0.59552402068 0.021735533191 
