# vtk DataFile Version 5.1
vtk output
ASCII
DATASET POLYDATA
POINTS 356 float
0.559627 0.581369 0.350113 0.621056 0.66743 8.94887 0.76154 8.62218 0.443927 
0.733329 8.65426 8.90407 8.93711 0.672125 0.213333 8.6735 0.816888 8.71085 
8.82468 8.54148 0.408429 8.85967 8.54153 8.81644 0.0238688 0.180311 1.26059 
-0.265641 -0.0366901 2.52415 -0.392053 -0.291796 4.13358 -0.453677 -0.202529 5.75112 
-0.265752 -0.0418125 7.2769 0.12705 0.32323 8.17623 -0.0802686 1.25796 0.117605 
0.0108175 2.55606 -0.250247 -0.185117 4.19119 -0.241187 -0.317193 5.81082 -0.287502 
-0.14787 7.29144 -0.0675909 0.597749 8.07298 0.0814379 0.448361 8.79754 1.31474 
0.0986526 8.88204 2.75741 -0.0533211 8.83879 4.26014 -0.12526 8.99463 5.63826 
0.139553 8.803 7.0034 0.453641 8.84089 8.12907 0.2592 1.3687 8.83031 
0.101235 2.41451 9.429 -0.166269 4.175 9.25947 -0.132427 5.79571 9.36925 
-0.0873098 7.31237 9.24372 0.610028 8.11125 9.14024 9.35402 0.0824219 0.987197 
9.36147 -0.099741 2.45371 9.21504 -0.247862 4.13806 9.20387 -0.172072 5.73489 
9.24365 -0.0425586 7.25293 8.99638 0.39222 8.33688 9.24704 1.25722 0.273523 
9.02014 2.44874 -0.302065 9.28884 4.11595 -0.313726 9.23642 5.73719 -0.24311 
9.33904 7.17796 0.0893223 8.99923 8.07267 0.111692 9.10289 8.84662 1.22149 
9.21187 8.89442 2.63419 9.12449 8.95195 4.18703 9.15057 8.83742 5.69996 
9.21272 8.92944 7.14508 8.78837 8.69823 8.19184 8.99182 1.38971 8.93277 
8.9555 2.54541 9.24727 9.29022 4.1126 9.18771 9.28467 5.67243 9.40021 
9.23897 7.16987 9.00636 8.89415 8.0283 9.11998 1.39355 0.544031 -0.207319 
2.67894 0.0769228 0.0103425 4.47408 -0.0847148 -0.348079 5.91144 -0.0240136 -0.314522 
7.13665 0.113821 -0.262754 8.14637 0.383289 0.00771692 1.56161 0.704243 9.04756 
2.63687 0.0375312 9.14105 4.4843 -0.122595 9.14196 5.87623 -0.017219 9.06996 
7.17505 0.210534 9.26674 8.17379 0.557885 9.04213 1.43557 8.73906 -0.0409971 
2.53972 9.17459 -0.0912284 4.35918 9.27382 -0.328093 5.89585 9.19252 -0.338311 
7.30472 8.9418 -0.215191 8.32291 8.82055 0.0841048 1.34261 8.81264 9.34284 
2.51544 9.32042 9.34756 4.41406 9.35297 9.61283 5.9806 9.17987 9.50781 
7.2998 8.98335 9.33839 8.17516 8.60928 9.07019 -0.748408 0.393991 4.99023 
-1.33739 6.05683 1.70566 -1.23015 6.0873 7.85414 -0.479003 0.747606 7.80271 
-0.469554 0.721058 1.87261 -0.636404 3.23517 8.7963 0.141068 8.01099 8.50288 
-0.682107 8.25967 6.53105 -0.79288 3.22732 0.515846 -0.717476 8.29221 3.29186 
-0.0627386 8.16687 0.733826 -1.75348 5.89147 4.9848 -1.57475 2.8431 3.20016 
-1.57938 2.8636 6.57633 -0.10189 0.690256 8.89465 -0.73685 0.4088 6.5233 
-0.753702 0.350841 3.36284 0.150169 0.946953 0.785749 -1.05203 4.84685 8.63992 
-0.618954 6.24902 8.66358 -0.738538 7.22723 8.22894 -1.03407 7.15722 7.12479 
-0.40271 8.22012 7.72366 -1.06254 4.78552 0.567693 -0.726088 6.21862 0.662225 
-1.02568 7.28358 2.55455 -0.680528 7.29754 1.17973 -0.322059 8.13572 1.93342 
-0.781301 8.26084 4.98278 -1.22021 7.31955 4.18894 -1.56015 5.98095 3.27183 
-1.36997 7.30399 5.69726 -1.54283 5.94447 6.58771 -1.49754 4.52705 2.46064 
-1.24577 3.08434 1.6701 -0.748647 1.34165 1.00343 -1.20433 1.07758 2.5722 
-1.30055 0.906923 4.16464 -1.52344 4.53183 7.28063 -1.25781 3.03548 7.93187 
-1.27168 0.863998 5.70541 -1.15222 1.03712 7.23272 -0.585412 1.34428 8.48256 
-1.79787 2.82359 5.01539 -1.91471 4.40107 5.80152 -1.76358 4.43299 4.09785 
9.90645 0.348712 4.8934 9.96772 5.91324 1.75112 9.86157 5.95887 7.7974 
9.67796 0.627462 7.87996 9.5196 0.757985 1.70748 9.74042 3.08937 8.77398 
9.34367 8.06954 8.58784 9.55291 8.12587 6.42655 9.74318 3.15182 0.447241 
9.65357 8.11731 3.37472 9.42715 8.08492 0.727645 10.2347 5.8329 4.99139 
10.0839 2.93486 3.22845 9.93904 2.99602 6.51801 9.3591 0.913 8.97551 
9.8462 0.464446 6.58902 9.87804 0.460972 3.36073 9.01362 1.01057 0.816349 
9.68765 4.72679 8.53053 9.65609 6.07001 8.67123 9.57646 7.106 8.26565 
10.0003 7.14333 7.08295 9.46294 8.04462 7.7407 9.81913 4.72283 0.843708 
9.75407 6.16305 0.607167 9.96903 7.24004 2.65257 9.55597 7.13167 1.24052 
9.54883 8.07507 1.82894 9.80696 8.22176 4.99843 9.84462 7.05994 4.16006 
10.0937 5.84471 3.36629 9.8529 7.04084 5.75471 9.95243 5.7722 6.55101 
10.2575 4.4831 2.53086 9.82163 3.10927 1.70821 9.73315 1.44578 1.01766 
9.75214 1.26932 2.53409 9.71269 1.31322 4.15308 10.1558 4.46522 7.16913 
9.82728 3.10456 7.76286 9.67331 1.22478 5.73017 9.72614 1.25991 7.14697 
9.47918 1.39291 8.364 10.1824 2.76784 4.97764 9.96317 4.4156 5.78309 
10.0434 4.31949 4.12697 3.9789 -1.26644 1.48949 3.9711 -1.11872 7.97083 
8.86875 -1.04662 4.90634 8.81882 -0.385722 8.00487 8.63211 -0.305008 1.71769 
6.73918 -0.56562 8.58729 1.42702 -0.144221 8.74871 1.19089 -0.929945 6.61711 
6.71719 -0.458876 0.547257 1.27991 -0.946351 3.31137 1.51944 0.0114394 0.664609 
4.07891 -1.60414 5.05832 6.8162 -1.51344 3.1996 6.79915 -1.43329 6.7436 
8.65967 0.271461 8.91713 8.99298 -0.953823 6.60583 8.8356 -0.780064 3.28552 
8.64152 0.159677 0.419172 5.33193 -0.828037 8.55252 3.96668 -0.706603 8.65657 
2.7323 -0.682516 8.27907 2.63082 -1.15389 7.28189 1.42244 -0.39946 7.77904 
5.38021 -0.892261 0.59924 3.9274 -0.567979 0.516131 2.64236 -1.04097 2.48743 
2.68195 -0.760091 1.07683 1.31553 -0.526235 1.73479 1.20562 -0.870539 4.98143 
2.60556 -1.37834 4.15625 4.05761 -1.66119 3.23918 2.57029 -1.38216 5.82235 
4.05115 -1.44781 6.67431 5.4577 -1.25258 2.39642 6.79457 -1.14857 1.45453 
8.15468 -0.546545 0.698875 8.17345 -0.966721 2.40915 8.23461 -1.24578 4.1095 
5.44096 -1.39637 7.4783 6.80345 -1.11452 7.92942 8.15211 -1.17373 5.83297 
8.20068 -0.889795 7.34363 8.18159 -0.288225 8.56087 6.87779 -1.58036 5.03201 
5.56601 -1.71883 5.87982 5.50128 -1.73239 4.13586 3.94981 9.87779 1.864 
3.91463 10.0904 7.7283 8.85705 9.4572 5.01475 8.78924 9.36463 7.68548 
8.6304 9.07839 1.89113 6.79032 9.32905 8.67593 1.41463 9.11262 8.52174 
1.13831 9.53784 6.50726 6.84319 9.70656 0.490116 1.02426 9.61667 3.32312 
1.32936 9.24447 0.768517 4.08512 10.0732 4.95642 7.043 9.99862 3.31537 
6.99735 9.92177 6.45263 8.6888 8.97161 8.84194 8.85819 9.41444 6.47955 
8.86284 9.49521 3.23007 8.72527 9.09005 0.671706 5.25902 9.85289 8.57099 
3.84368 9.67012 8.72231 2.57087 9.75471 8.26932 2.55239 9.7868 7.02043 
1.22748 9.49189 7.6245 5.28477 9.87301 0.906053 3.75545 9.86301 0.598303 
2.49238 9.85916 2.68442 2.53878 9.70015 1.23864 1.20943 9.33526 1.94036 
1.0326 9.42404 4.98971 2.51707 9.94058 4.2034 4.0206 10.2311 3.3299 
2.47771 10.1155 5.62209 4.01432 10.1657 6.48859 5.54334 10.141 2.55922 
6.8713 9.6962 1.8209 8.11005 9.2968 1.04884 8.15689 9.63084 2.62686 
8.24303 9.51244 4.16247 5.55222 9.99481 7.18363 6.94312 9.9181 7.78224 
8.29639 9.6127 5.65422 8.10408 9.45176 7.07071 8.21572 9.36838 8.45129 
7.07795 9.98011 4.96384 5.58244 10.3037 5.69864 5.59505 10.1243 4.17118 
1.72219 4.00426 -1.24954 7.80433 3.96325 -1.33655 5.13484 9.04698 -1.07038 
8.02028 8.79764 -0.726126 1.78956 8.75196 -0.796356 8.78147 6.68738 -0.777809 
8.59297 1.45601 -0.329126 6.56527 1.12319 -0.935408 0.705026 6.6084 -0.667868 
3.46016 1.19519 -1.01481 0.900397 1.4832 -0.346958 4.94276 4.04611 -1.73538 
3.27185 6.95287 -1.60255 6.70879 6.99928 -1.61393 8.7427 8.42598 -0.00390186 
6.65002 8.88523 -0.974883 3.39697 9.01742 -1.02901 0.893429 8.46583 -0.122299 
8.58388 5.20549 -0.992614 8.64932 3.77306 -0.903501 8.2366 2.65055 -0.903302 
7.17061 2.56045 -1.32215 7.73256 1.22403 -0.722136 0.553774 5.21515 -1.06393 
0.522957 3.7171 -0.957801 2.50838 2.52926 -1.28931 1.21246 2.63813 -0.97649 
1.9679 1.38677 -0.69083 5.1082 1.1206 -0.9686 4.13315 2.53161 -1.44021 
3.29147 4.01323 -1.72097 5.80474 2.597 -1.47705 6.56815 4.08191 -1.73071 
2.43511 5.41765 -1.55406 1.65328 6.80471 -1.32617 1.05479 7.98522 -0.704849 
2.69923 8.10441 -0.903286 4.27315 8.31455 -1.1903 7.26804 5.43431 -1.55837 
7.86867 6.83795 -1.2645 5.89672 8.31002 -1.34228 7.31387 8.14527 -0.974755 
8.45039 8.05341 -0.459755 5.04251 7.04853 -1.68167 5.75457 5.57677 -1.75582 
4.11908 5.60024 -1.74622 1.7299 3.9476 10.1565 7.77735 3.95225 9.99906 
5.03733 8.6949 9.55254 7.87079 8.6198 9.79935 1.88769 8.55053 9.71338 
8.74105 6.68964 9.6152 8.55832 1.49059 9.44806 6.50467 1.24087 9.64904 
0.723606 6.61933 9.49618 3.51595 1.1152 9.58448 0.935158 1.40573 9.4801 
4.98571 4.05614 10.3652 3.27255 6.8159 10.0719 6.63403 6.80954 10.1611 
8.72849 8.46895 9.33168 6.66168 8.60196 9.69884 3.58525 8.71566 9.6024 
0.971688 8.38297 9.25834 8.52504 5.12571 9.82319 8.76356 3.74554 9.82147 
8.23506 2.66556 9.75992 7.13102 2.53257 10.0659 7.66523 1.35115 9.46541 
0.726226 5.23932 9.82601 0.612634 3.69368 9.82726 2.63198 2.43343 10.1332 
1.31149 2.6959 9.51351 1.9457 1.37451 9.752 5.1301 1.06104 9.67988 
4.21233 2.5578 10.2039 3.36731 4.05117 10.0864 5.7396 2.63157 9.93787 
6.5385 4.04058 10.3813 2.44679 5.34051 10.2257 1.80407 6.76403 10.0901 
1.23966 7.95718 9.65757 2.68228 8.14408 10.0478 4.2029 8.14484 10.1307 
7.26009 5.42321 10.2494 7.85043 6.77535 9.90489 5.89804 8.2459 10.1007 
7.2016 8.01846 9.8753 8.39893 7.92145 9.55333 5.03777 7.02745 10.2954 
5.78245 5.55653 10.1833 4.13968 5.56795 10.3263 
POLYGONS 709 2124
OFFSETS vtktypeint64
0 3 6 9 12 15 18 21 24 
27 30 33 36 39 42 45 48 51 
54 57 60 63 66 69 72 75 78 
81 84 87 90 93 96 99 102 105 
108 111 114 117 120 123 126 129 132 
135 138 141 144 147 150 153 156 159 
162 165 168 171 174 177 180 183 186 
189 192 195 198 201 204 207 210 213 
216 219 222 225 228 231 234 237 240 
243 246 249 252 255 258 261 264 267 
270 273 276 279 282 285 288 291 294 
297 300 303 306 309 312 315 318 321 
324 327 330 333 336 339 342 345 348 
351 354 357 360 363 366 369 372 375 
378 381 384 387 390 393 396 399 402 
405 408 411 414 417 420 423 426 429 
432 435 438 441 444 447 450 453 456 
459 462 465 468 471 474 477 480 483 
486 489 492 495 498 501 504 507 510 
513 516 519 522 525 528 531 534 537 
540 543 546 549 552 555 558 561 564 
567 570 573 576 579 582 585 588 591 
594 597 600 603 606 609 612 615 618 
621 624 627 630 633 636 639 642 645 
648 651 654 657 660 663 666 669 672 
675 678 681 684 687 690 693 696 699 
[...]
CELL_DATA 708
SCALARS scalars double
LOOKUP_TABLE default
-6.0062777037 -8.9661586937 -6.2868312165 -5.7352029105 -6.0413057173 -4.5217536343 -5.2416003924 -5.9711235538 -6.2197298273 
-5.6684553947 -4.6162148021 -4.3803121895 -2.1859144554 -5.0688269361 2.3695415065 2.1572091305 -0.30381428957 -0.81506391815 
0.73209604445 -0.42019851567 3.2229861962 5.1002996315 4.027846707 4.0814387216 3.9370422544 7.7489785843 7.6583251077 
4.7482521898 5.027943858 6.3337661231 1.5727130945 6.2742456872 1.3179145963 -0.82832640586 -1.8107535631 2.3131004625 
-0.99694938894 -0.77578562002 2.3119618506 3.8130185321 4.7048560954 5.119783001 5.3242454462 7.9797235776 6.9570356971 
7.6277461241 6.4880497336 6.8450556735 4.1081044708 2.5599159066 2.2196404624 1.6711842478 5.708004475 6.0595995125 
6.4071656211 7.4769019294 3.6799966797 7.7867350539 7.1798001261 3.2055706377 3.0335899695 3.2015032287 4.1352957817 
2.0279725484 3.0434174465 2.7977519919 3.0344234999 5.5203453815 4.4018984038 4.7712197833 -0.091124078987 -1.4575218843 
-0.5086451473 -0.43957746318 -1.116846455 -6.9937460992 -5.7024092575 -1.7794346681 -8.6277347262 -6.3328490554 -5.9941791439 
-6.0931175333 -7.1087762415 -1.2199026919 -1.1862610532 -1.5405031436 0.62855835309 -0.68186077134 -1.4485680955 -0.2276262219 
-1.9301318251 -5.9345303466 -5.2856840017 -6.4606496986 -1.3161961367 -5.7917268091 -6.219778518 1.3106367685 2.8198056379 
-1.2053801947 -1.3643644957 -2.0186549891 -7.3851498499 -2.102008794 -1.9834327537 -2.5570624006 -0.78099134677 0.98558619253 
1.7296522298 1.0714712132 -0.25813443255 0.72612059132 0.34974376058 0.45497982757 0.59851684144 -0.48640289297 -1.4272796943 
-0.29453531546 -3.0988125489 -7.1827247807 -2.5454347402 -7.3914370911 -2.7210422912 -7.7836284678 -7.3594125673 -2.7243248872 
-6.8087222208 -2.6724803112 -2.0697302936 -0.63370060308 2.8557704275 -1.5129184072 -0.011241219746 -0.25331090021 -0.87900497517 
1.134381564 1.6152364284 -0.61425482248 0.9451127275 1.9109338497 4.6140027732 2.9344307796 4.0546154085 3.2342024076 
4.9654184764 6.9098277445 6.8808298667 2.1187447658 1.554191719 0.83575271726 2.2087545196 -1.2865164681 -1.9794383516 
0.14790259866 0.69217933418 0.48067711381 -0.43704314753 1.9552217958 3.900457997 0.75389888889 1.8736257854 5.1477929904 
4.4124888883 5.8061786319 4.4835966811 4.3959870467 0.33893508781 2.7287843943 3.0003193119 0.65563555859 5.5674475829 
3.0920026273 6.1571067183 4.3881638496 2.5510067458 6.0829119614 7.0635734994 0.50356446953 2.5117408394 1.3812974684 
3.3795532606 1.8993607085 -0.66739362126 0.083243278818 3.0215455615 1.5503284497 1.0437093825 0.35831109306 0.63954716738 
-0.32287378231 -1.9277975779 -1.4198749819 -0.94128637778 -4.7484453137 -2.6842640014 -2.0707301828 -8.2846337046 -2.3524841073 
-2.5131733184 1.7310618411 -3.4301137359 -1.1856545562 -0.26920497973 -0.45723523087 0.53964500491 -1.9024225893 0.44889251321 
-0.79097318937 -1.3364252953 -2.8916166546 -3.5423013256 1.7721567137 -2.728213892 -4.2551502361 1.3739193772 -1.7374581273 
5.4036279468 -1.7096228162 -0.86610523036 -1.2338414396 2.2395204168 -2.2560748608 -2.6527035023 -3.1054409702 -0.86225521289 
1.7462204107 -0.90702916181 0.87183025997 -0.53653126913 -0.76024611644 1.6130516724 0.35366899616 -1.5712048116 0.61766113176 
0.59426222447 1.117743488 -4.3045219394 1.7594108287 -5.835115819 -2.6337032972 -6.3984024497 -3.7779638133 -3.4413911286 
-6.9744083378 -5.9837702756 -7.5142460792 -9.19354907 -5.8440658974 -5.2773015344 -5.5162600831 -4.6175740575 -8.5664356125 
-6.4004074553 -6.5920815427 -5.7698971859 -6.0994001444 -5.7621663389 -8.7763041074 -9.2423902062 -8.3015064946 -8.3474582466 
-8.3986660018 -8.2358830401 -6.347162406 -8.7789489646 -2.8458945928 -8.449214234 -7.6923480866 -7.6244721428 -3.1872461489 
-8.3844973815 -8.1905035796 -8.0725936566 -7.6838058077 -7.3760067182 -8.1897261081 -9.331380513 -9.4134190428 -8.0222447774 
-9.4660186454 -8.8485630852 -8.3440856368 -8.2352417066 -7.9542708035 -8.8583492505 -8.8494722436 -7.5312209321 -8.0854158183 
-7.7741303475 -8.0305433538 -8.4558020991 -9.2096022974 -8.7285375745 -9.6208489645 -9.3524759801 -9.3294141959 -9.3214170983 
-9.847142583 -9.321881456 -9.6159614842 -9.9071322906 -9.6605640561 -9.7813375331 -9.8893505619 -9.4303394689 -9.4493501824 
-9.3822118119 -9.7080155991 -7.6633734051 -9.7678072515 -9.7920127667 -5.5673183619 -8.8471565407 -9.4442231469 -5.5175747967 
-7.7310884861 -6.4563220065 -8.7433213194 -6.7744667444 -9.4363586737 -7.9536564767 -9.3064728707 -8.8431025997 -9.5960707735 
-7.5576364196 -8.8245341602 -9.4123635798 -6.6585009043 -7.760862509 -9.7935763182 -6.9695124885 -7.1340123588 -8.676987815 
3.1425570145 -4.9373778284 -7.5085668909 -9.3399615884 -8.4902401968 -9.695786378 -9.6406560931 -9.7640120867 -9.605288234 
-9.7554657821 -9.6565804953 -9.8741100559 -9.7863619611 -9.6379297776 -9.9709380375 -9.6353900981 -9.5643555739 -9.965047329 
-9.8989337575 -9.823223034 -9.9421181105 4.1291129304 3.6987028638 8.341261894 5.2440001409 6.981074273 4.442998348 
3.1459172696 8.0376377755 4.7840901548 7.9546687401 9.2714230138 9.1097712228 4.222808437 3.5260513011 5.4959030465 
9.2023711517 9.2215348026 9.2212715826 8.6833508188 9.2530055181 8.4959158324 9.7242067371 8.2719437047 9.7968051402 
9.7837148779 8.2126743261 8.0004513884 8.5698294776 8.0972594443 8.785195928 9.2034671614 8.5539223394 9.2655444419 
8.6199428333 7.2458702573 7.3608574693 9.999300795 8.6849301204 8.8542903527 8.664823664 9.9091316214 9.4072894163 
9.4339206012 9.41124812 7.9402206911 8.5414546744 7.1010131582 7.2435864501 8.6447631163 8.2626415485 9.1056774128 
9.9168183969 8.8619822411 8.0038650436 7.8002185552 9.2842110818 8.3457910805 9.8172037287 8.4610566736 9.058476402 
9.6418950078 9.8611105968 9.7501849991 9.3938966045 9.9818410625 9.7067128784 9.5842044044 9.9209270108 9.0790157445 
9.554279956 9.1510469095 9.8453863174 9.9417451232 9.556582084 9.5797846772 8.9292862165 9.0915294935 9.3800457742 
8.9917340094 7.3532486922 7.9561697354 9.8896830727 7.6767979047 9.5914381078 9.5158680381 9.6128591155 9.876903937 
9.9858454664 7.932422935 9.9453793853 9.373723224 7.043091981 8.3900491481 9.7955595353 8.9912540777 6.7797688172 
9.9547531617 0.85298714065 6.3179592497 8.2804918506 9.238901354 9.223674 9.7932319607 9.638780189 9.2743273341 
9.4218040439 9.6701239276 9.9452488868 9.9060511049 9.7883808358 9.958417195 9.9525161176 9.7109051759 9.979626401 
9.8865835125 9.9572647356 9.7067246031 9.8111160532 3.7957542106 7.2232054048 5.4926783957 9.5324559956 6.7433361121 
9.6847752473 9.8669111756 6.0682766709 9.6744551709 5.9984786416 9.162391123 7.0870086845 4.5834509523 8.6247358237 
2.780878314 -0.34988616833 -0.14330141479 0.7272227236 -0.060134986207 -1.1879000393 0.53220342342 -1.7778732514 -2.6977244289 
-3.3133580947 -2.4526319274 -4.6357229539 -5.1154195103 -4.1452110726 -4.36282092 -2.4455935745 -1.55532389 -2.1831657904 
-2.0662020711 -2.484404355 1.8184449049 1.0750186709 -0.64384456568 2.8520332108 -0.76971120884 -0.34094898211 -1.0273560814 
-3.5805275363 -3.875142295 -3.5516322235 -5.7716680301 -3.0018832993 -5.261205623 -3.8794756216 -4.8331234483 -5.5726453917 
-3.1916555433 -1.163448532 -2.9237201176 -0.84493244006 -2.2857370859 -4.8500734389 -5.1474259608 -2.6119019248 -4.5942922152 
-4.7413003136 -1.2615389518 -1.8881773553 -2.343179158 -2.9749544695 -1.7168217583 -1.4007664846 -2.1925641419 -1.8381818515 
-3.3482381016 -3.0908058021 -3.2211921434 -0.8587526768 2.798067679 0.63593965054 0.15911517882 6.6492184372 6.3573680577 
4.2555612849 3.3959688445 4.0050465168 6.2218460706 0.018184871089 -0.039542753283 4.3876662775 1.2661254409 4.0539956334 
0.058388583593 0.72299482946 0.63328959633 0.21666344252 3.5455840538 7.2831280078 6.4302695809 2.4191759162 3.1841433131 
5.7487104005 -0.91655060557 4.9401358269 2.801049941 3.0826666684 3.3054708688 3.59493218 2.6226602479 2.3015951583 
3.2933310533 3.1370804483 0.11404955121 -0.3412656864 -0.15053181502 0.56518414746 0.32294805638 -0.11480091201 -0.61286109067 
0.45838178581 -0.10164302758 0.75365253422 0.70820875356 0.47818350368 4.9311924649 9.7060139773 4.5836523121 4.9612485979 
5.3552371649 -0.31329584232 8.8717931471 4.2007446116 1.6511244965 4.9716246208 5.753592495 3.4348506012 4.3431407068 
3.8326267016 1.5322169913 0.30460191215 1.2469776353 2.0779410299 0.5534730209 -1.4910938272 -1.1141139431 -0.80161826981 
-2.415722374 -3.799771091 -3.2683061625 -2.4106523857 -2.88982698 -5.1270580952 -4.2659275071 -1.5457010147 -1.2902093948 
-0.59712682375 -2.9979007292 -5.5383731229 0.87041532784 -0.0038642212378 0.21879223897 2.1758396905 -0.48518556207 0.42640864544 
-2.8286205163 -3.6117225594 0.50280781837 -0.44583887935 -3.5824035635 -6.4538083991 -2.2528827206 -5.646973887 -5.4417880545 
-4.0201905155 -0.059197577447 -4.0366262953 -2.9824491174 -0.12841176059 -4.6359700004 -4.4899631566 -3.8743741327 -3.9026627948 
-3.8214035985 -4.4825778722 0.0977309798 -0.18465471778 0.51002286022 -2.5813949146 -2.9355041018 -0.86259662883 -2.4332259658 
-1.9542585007 -1.7909114293 -3.661311114 -2.263108134 0.6994186704 2.0143460259 0.98784675353 -0.091291299367 5.047872657 
3.5843092158 -0.060694604647 3.7713530573 5.1888170364 3.0075127471 6.5411018462 2.1916468453 0.23273032481 0.83702845351 
2.0713634204 -0.53553795692 1.553531314 0.82164497654 0.91500419328 1.3937000709 5.1235646679 4.8317609905 4.7001174633 
2.2004647725 4.9481593076 -1.5189855582 2.2254945899 -1.0329178206 1.3550902652 1.3155897368 1.627389962 7.4732497063 
0.9077391531 0.47998381422 1.520014647 0.45259457689 -0.60422830249 1.2510098086 1.1264534519 1.4661904024 -0.69387729615 
-0.73862499878 -1.3594375058 0.74248567111 1.0536396894 -0.35991547736 -0.32128692926 
