# vtk DataFile Version 5.1
vtk output
ASCII
DATASET POLYDATA
POINTS 356 float
0.497663 0.573705 0.237686 0.590314 0.576452 8.93534 0.711228 8.542 0.377127 
0.832469 8.55788 8.90505 8.82727 0.716416 0.211709 8.61924 0.790288 8.83125 
8.91992 8.54241 0.377843 8.61869 8.35575 8.76024 -0.0376584 0.0983916 1.28562 
-0.262868 -0.0782869 2.6424 -0.419449 -0.205156 4.16468 -0.364953 -0.213019 5.69564 
-0.286084 -0.0552519 7.11074 0.109266 0.339336 8.02375 -0.0291024 1.36958 0.193441 
0.0138399 2.5346 -0.412904 -0.305501 4.09047 -0.333082 -0.234955 5.86739 -0.17226 
-0.110993 7.20023 -0.0341246 0.638828 7.95936 0.0228251 0.487423 8.61053 1.35504 
0.0283477 8.83328 2.71655 -0.0155166 8.76092 4.17652 -0.0826782 8.8592 5.61767 
0.132668 8.83025 6.97816 0.492802 8.73229 8.07467 0.255791 1.38295 8.83098 
0.0621316 2.47376 9.44968 -0.193241 4.0982 9.27613 -0.127028 5.8698 9.27301 
-0.0633755 7.19535 9.14274 0.675491 7.93508 9.09898 9.07394 0.300572 1.09257 
9.25708 -0.0231507 2.44185 9.16813 -0.217342 4.09064 9.22718 -0.277861 5.66717 
9.23108 -0.0820678 7.18914 9.12114 0.296744 8.30233 8.92786 1.40541 0.389331 
9.02877 2.50586 -0.38072 9.16815 4.09287 -0.275314 9.23548 5.67327 -0.205258 
9.27568 7.06486 0.152533 8.98223 7.94807 -0.0600252 9.02869 8.78817 1.21246 
9.1202 8.90051 2.57219 9.27813 9.02415 4.09131 9.24384 8.99322 5.64773 
9.17245 8.99908 7.12239 8.76316 8.62561 8.1054 9.01874 1.34529 8.90866 
8.88612 2.56548 9.22478 9.07451 4.07114 9.10242 9.25774 5.73862 9.25513 
9.14624 7.04952 9.03467 8.69005 7.80221 8.87695 1.42798 0.557823 -0.136852 
2.65117 -0.0272499 -0.155635 4.41606 -0.0994743 -0.472975 5.83043 0.0689471 -0.257076 
7.08447 0.139082 -0.384975 8.01121 0.574659 0.0891006 1.50536 0.695776 9.0022 
2.60795 0.157005 9.15757 4.34223 -0.0526068 9.16853 5.93019 0.0153227 9.21446 
7.0732 0.294488 9.09273 8.11052 0.533228 9.12561 1.48932 8.6213 -0.107137 
2.54752 9.02032 -0.120713 4.38782 9.19653 -0.399631 5.89119 9.0884 -0.481109 
7.19761 9.02973 -0.370372 8.28756 8.83782 -0.0646416 1.44094 8.55108 9.23788 
2.57711 9.08437 9.37842 4.36478 9.25582 9.49943 5.94555 9.09498 9.46515 
7.18977 8.81169 9.41488 8.12229 8.59715 9.07139 -1.18391 0.179139 4.92965 
-1.32059 6.03631 1.73505 -1.33663 6.06504 7.7245 -0.694809 0.576863 7.81192 
-0.619952 0.712778 1.84824 -0.679079 3.16082 8.67655 0.194746 7.92445 8.40558 
-0.596797 8.09567 6.38751 -0.821763 3.23435 0.56029 -0.777511 8.14375 3.31408 
-0.139398 7.94306 0.630798 -1.84773 5.91095 5.01745 -1.69359 2.90121 3.22174 
-1.65038 2.90971 6.48806 -0.0475177 0.706717 8.78902 -1.10132 0.186771 6.43199 
-1.17067 0.188027 3.32798 -0.0916091 0.832536 0.670118 -1.14156 4.75267 8.589 
-0.668787 6.21207 8.52222 -0.79818 7.17746 8.09742 -1.08671 7.21502 7.03225 
-0.477742 8.12743 7.57435 -0.995818 4.74823 0.665473 -0.797397 6.11662 0.707366 
-1.1591 7.23192 2.55486 -0.745507 7.13306 1.27096 -0.409816 8.04442 1.91096 
-0.860369 8.22477 4.98626 -1.23961 7.20828 4.15738 -1.61972 5.97124 3.30342 
-1.39403 7.18602 5.65035 -1.51925 5.95119 6.48871 -1.60734 4.55454 2.51258 
-1.35932 3.13409 1.74368 -0.712337 1.40295 1.02211 -1.14763 1.10615 2.57324 
-1.28201 1.00956 4.17559 -1.60201 4.59187 7.07593 -1.40697 3.09343 7.70681 
-1.28169 0.937955 5.68317 -1.11267 1.13123 7.04772 -0.656374 1.40787 8.44134 
-1.92179 2.89001 4.97857 -1.89181 4.45603 5.6679 -1.81809 4.46697 4.12608 
9.89992 0.378203 4.88513 10.017 5.97998 1.81728 9.80586 5.89191 7.63218 
9.3411 0.805154 7.64368 9.49936 0.763157 1.7162 9.58557 3.13046 8.65075 
9.07289 7.79951 8.48631 9.67996 8.08339 6.39097 9.38482 3.15558 0.58686 
9.58169 7.99841 3.4334 9.15756 7.78746 0.820701 9.96799 5.68369 4.94144 
10.0619 3.02061 3.20392 10.1262 2.94323 6.39313 8.93036 1.01491 8.52611 
9.72606 0.4874 6.53128 9.82402 0.475083 3.31458 9.19823 0.926578 0.565626 
9.88169 4.63864 8.48812 9.36876 6.07367 8.43027 9.61374 7.0123 8.14068 
9.83041 7.00947 7.07183 9.28098 7.92915 7.55723 9.81875 4.80387 0.72318 
9.47231 6.11606 0.758042 9.68216 7.0877 2.66686 9.66405 6.99756 1.28613 
9.42399 7.96402 1.82949 9.59917 8.00863 4.95232 10.0416 6.96516 4.12544 
10.1278 5.84538 3.30517 10.0259 7.0308 5.69917 10.1426 5.8397 6.36402 
9.88064 4.41929 2.46549 9.94024 3.0559 1.67122 9.56685 1.47257 1.03787 
9.62316 1.29974 2.55814 9.64794 1.25778 4.09979 10.0617 4.47476 7.09135 
9.76401 3.0159 7.64346 9.62114 1.15786 5.63358 9.75415 1.32727 7.04577 
9.46999 1.44921 8.31381 9.8535 2.76365 4.92694 10.1256 4.41576 5.66503 
10.149 4.36951 4.08796 3.95336 -1.34615 1.54119 4.02348 -1.27362 7.75011 
8.94934 -1.19816 4.92116 8.55411 -0.244566 7.82109 8.78728 -0.614366 1.53483 
6.67545 -0.68494 8.63661 1.41858 -0.183403 8.55657 1.21764 -0.922108 6.46834 
6.66177 -0.693786 0.371002 1.2181 -0.977665 3.35308 1.49611 -0.0624408 0.652325 
4.04486 -1.76295 4.98996 6.7494 -1.66442 3.18885 6.83993 -1.63162 6.69079 
8.31418 0.351409 8.4623 8.83665 -0.878491 6.54005 8.92572 -1.02849 3.18716 
8.60789 0.0848098 0.327393 5.29113 -0.823777 8.44289 3.84014 -0.730011 8.57683 
2.73196 -0.697276 8.06442 2.61959 -1.29916 7.14691 1.31162 -0.668826 7.71415 
5.33682 -1.02174 0.586477 3.90535 -0.617698 0.516518 2.56662 -1.20843 2.53362 
2.66093 -0.936241 1.05968 1.21417 -0.733325 1.75143 1.21234 -1.10421 4.97345 
2.61954 -1.58176 4.08622 4.04044 -1.66522 3.29749 2.58722 -1.48707 5.7361 
3.96744 -1.6592 6.56423 5.35353 -1.52361 2.41168 6.67441 -1.17634 1.49879 
7.9655 -0.440028 0.742416 8.03803 -0.958175 2.40953 8.08602 -1.27458 4.04672 
5.40931 -1.60543 7.20424 6.68106 -1.05992 7.68273 8.08348 -1.17264 5.73664 
8.22472 -0.95452 7.26475 8.13532 -0.372702 8.52211 6.75775 -1.71223 4.98369 
5.48497 -1.66998 5.81487 5.45619 -1.79811 4.08165 3.85985 9.88686 1.83743 
3.86475 9.98053 7.55356 8.69699 9.3691 4.96068 8.48308 9.03567 7.68207 
8.56038 9.18282 1.82411 6.72923 9.36472 8.59448 1.43167 9.05945 8.54215 
1.16427 9.31457 6.34173 6.71764 9.52898 0.533233 1.07217 9.40563 3.33776 
1.32595 9.21509 0.7576 3.98283 10.2906 4.93578 6.8017 9.83109 3.29922 
6.91127 9.86726 6.37279 8.68793 8.94889 8.71767 8.59816 9.1516 6.29963 
8.61978 9.23818 3.32973 8.36683 8.71586 0.759368 5.24352 9.67535 8.40752 
3.7015 9.49674 8.57473 2.58888 9.47445 8.1413 2.39934 9.88712 7.01468 
1.23757 9.35492 7.56721 5.26316 9.7226 0.93795 3.70956 9.79973 0.539791 
2.39612 9.93763 2.6683 2.54934 9.50504 1.22331 1.20922 9.30256 1.9745 
1.01811 9.51303 4.96429 2.43128 9.92244 4.16709 3.89967 10.0601 3.30132 
2.3893 9.90212 5.62711 3.96956 10.0513 6.34535 5.42487 10.1607 2.60979 
6.80359 9.80773 1.80037 8.02449 9.36376 1.02661 8.11068 9.71096 2.59902 
8.15676 9.80534 4.05514 5.47277 10.1293 7.10495 6.8319 9.68181 7.65093 
8.23126 9.83544 5.63723 8.13344 9.69876 7.10376 7.96846 9.23548 8.3794 
6.88636 10.0245 4.97072 5.46649 10.1102 5.64191 5.55456 10.1469 4.15973 
1.67373 3.87794 -1.5782 7.7011 3.8603 -1.39269 5.14894 8.89403 -1.19375 
7.77936 8.49314 -0.581456 1.82404 8.59003 -0.878562 8.56823 6.54519 -0.649775 
8.54214 1.49417 -0.383212 6.50984 1.17333 -1.0198 0.568133 6.56729 -0.660138 
3.48801 1.23101 -1.06043 0.913459 1.53204 -0.341801 4.96155 3.99637 -1.87366 
3.25092 6.79152 -1.7467 6.6093 6.83588 -1.57784 8.75374 8.37455 -0.132617 
6.50173 8.72948 -0.887425 3.41107 8.92016 -1.09892 0.908032 8.37293 -0.232124 
8.53685 5.12553 -1.11115 8.54475 3.72101 -0.957623 7.99779 2.55958 -0.874638 
7.03666 2.50473 -1.45748 7.62474 1.2295 -0.824201 0.624775 5.21403 -1.29399 
0.617956 3.79887 -0.840307 2.66323 2.45775 -1.39162 1.23747 2.63165 -1.18125 
1.94406 1.33176 -0.905725 5.12594 1.09866 -1.17456 4.18014 2.55118 -1.65148 
3.32421 3.95538 -1.85832 5.71449 2.59983 -1.5567 6.58461 3.98789 -1.75815 
2.51588 5.31774 -1.68096 1.69271 6.70179 -1.35566 1.1274 7.83717 -0.752441 
2.72613 7.95677 -1.07256 4.26387 8.14558 -1.31577 7.13843 5.44206 -1.5601 
7.7901 6.80418 -1.31931 5.8748 8.20678 -1.4994 7.25421 8.10781 -1.14179 
8.32864 7.93201 -0.569132 4.99119 6.92671 -1.77312 5.78067 5.48609 -1.90398 
4.12131 5.51187 -1.91598 1.76962 3.91629 10.1584 7.62578 3.8966 9.92359 
5.10965 8.65699 9.80678 7.74384 8.27372 9.39419 2.09771 8.25652 9.38421 
8.46864 6.55922 9.49556 8.3646 1.58007 9.22962 6.46835 1.24282 9.82047 
0.763845 6.57799 9.48231 3.52301 1.15641 9.74578 1.01243 1.55443 9.39641 
5.00537 4.02827 10.2129 3.25598 6.65691 10.0897 6.54662 6.78342 10.1957 
8.61016 8.23008 9.24097 6.51621 8.42696 9.69898 3.49023 8.5346 9.63668 
0.941689 8.29354 9.29426 8.47856 5.05402 9.90038 8.57648 3.62531 9.83336 
8.02408 2.6461 9.72064 7.02163 2.57166 9.90221 7.56693 1.32589 9.46092 
0.804731 5.17323 9.94362 0.735785 3.67233 9.59814 2.69072 2.46627 9.9879 
1.38876 2.61045 9.78531 1.99157 1.33258 9.63803 5.04083 1.06891 9.68499 
4.26473 2.53259 10.2751 3.3286 3.95733 10.1814 5.72298 2.51212 10.0461 
6.46667 3.97252 10.2977 2.52324 5.30898 10.1428 1.77591 6.65752 10.0101 
1.18653 7.87263 9.7341 2.70287 7.92089 10.0142 4.27652 8.08346 10.1483 
7.1496 5.37803 10.2222 7.72695 6.63582 9.89637 5.85451 8.03316 10.1623 
7.17126 7.93169 9.9661 8.29259 7.81024 9.62426 5.01095 6.83047 10.1284 
5.70603 5.5308 10.3229 4.11951 5.45524 10.4523 
POLYGONS 709 2124
OFFSETS vtktypeint64
0 3 6 9 12 15 18 21 24 
27 30 33 36 39 42 45 48 51 
54 57 60 63 66 69 72 75 78 
81 84 87 90 93 96 99 102 105 
108 111 114 117 120 123 126 129 132 
135 138 141 144 147 150 153 156 159 
162 165 168 171 174 177 180 183 186 
189 192 195 198 201 204 207 210 213 
216 219 222 225 228 231 234 237 240 
243 246 249 252 255 258 261 264 267 
270 273 276 279 282 285 288 291 294 
297 300 303 306 309 312 315 318 321 
324 327 330 333 336 339 342 345 348 
351 354 357 360 363 366 369 372 375 
378 381 384 387 390 393 396 399 402 
405 408 411 414 417 420 423 426 429 
432 435 438 441 444 447 450 453 456 
459 462 465 468 471 474 477 480 483 
486 489 492 495 498 501 504 507 510 
513 516 519 522 525 528 531 534 537 
540 543 546 549 552 555 558 561 564 
567 570 573 576 579 582 585 588 591 
594 597 600 603 606 609 612 615 618 
621 624 627 630 633 636 639 642 645 
648 651 654 657 660 663 666 669 672 
[...]
CELL_DATA 708
SCALARS scalars double
LOOKUP_TABLE default
-5.5237046913 -8.8899009019 -4.1999772656 -9.186182888 -5.4921618498 -8.9780383306 -7.8734890761 -5.290789911 -9.2672765412 
-5.8981467071 -5.6700017203 -4.7499119463 -5.1976509094 -5.0839642833 2.7363364076 2.6303260477 -0.44834786593 -1.4598274618 
0.97785568309 0.22973680879 3.501325962 5.3304800255 5.2416627476 4.3028950729 3.5848616064 6.8093717427 7.5071096495 
4.6006686847 4.8226522359 6.5210247147 1.6711797429 6.5354690993 1.411028903 -1.3344781842 -1.8897742828 1.4203358973 
-0.58847208368 0.86141021066 1.3560919001 3.3419243127 5.4276470638 4.6842773582 5.0776128347 7.6649382422 7.7337900708 
7.7450857599 6.9283016772 6.4488535977 3.2518295965 2.7636415636 2.7151404408 1.3409813167 4.840402486 5.5965265364 
6.7591624877 6.4240991604 4.1361939682 8.1156909877 8.0391532515 2.4655269521 3.6083538499 3.2034459022 5.6985532613 
2.3590367656 2.768280299 2.3629479699 3.7320402484 5.4707296148 3.945915849 4.1023969858 0.19895169552 -0.75085778243 
-0.46771930583 0.041380126413 -2.8620046847 -4.6228747653 -4.8541473837 -2.5767738494 -4.2079234126 -4.9310671309 -5.0924599274 
-0.45907496029 -4.9276439931 -1.9962688574 -1.5917183357 -2.2051271863 0.463497098 -0.42394504582 -1.9322670778 -0.018652877284 
-2.4160148738 -5.7291528785 -5.700027103 -1.0073196853 -0.96120558271 -6.1119377732 -2.1705525159 0.36500784193 1.1702066068 
-0.91033326282 -2.1730622592 -2.5175713445 -1.2232667323 -2.4935651359 -2.7101840879 -3.1637858644 -0.43685014577 1.1801230486 
1.245684277 1.3983764265 -0.039137170653 0.59662068924 0.93482468894 0.61669177606 0.089409262806 -0.044348187793 -0.59285142796 
0.39987056711 -2.892755326 -0.30101359369 -2.8035090536 -6.0300425426 -2.1317742839 -7.4527723308 -2.0406975784 -2.7655466666 
-7.1386151721 -2.690211553 -4.7342986578 -3.8537084454 -5.2224891611 -0.67277791375 3.2307628915 3.3440003648 -0.18242553527 
-0.37742072982 1.1300020491 -1.4012311878 0.77752949369 4.6906972162 3.4086006267 4.3378536418 2.3299129774 2.3143620054 
2.7130203803 4.7104399012 4.4013518148 5.0191855907 -0.7457753093 3.8422954074 -0.86715628185 -0.63002721381 0.07583520767 
2.4218119771 -1.956761589 -0.11920349861 2.486651341 3.1218901702 1.9195990156 3.8457720496 2.5650766639 3.5452178852 
2.3173451892 1.9577561653 3.7316398847 3.769745699 3.9824956945 0.74889121831 -0.11208915556 0.37607084272 2.13905758 
2.8234840314 3.8295820273 4.5901226879 2.7829085425 2.913891056 3.2224703975 3.1827648546 0.050211847992 2.3021023104 
2.2435403004 0.27567312498 1.048286481 1.7449066545 -0.49699244452 3.5308248693 3.9920214227 3.9525746718 -1.115332921 
-1.8999562726 0.88162378684 0.56963547632 -4.742929637 0.96496104675 -3.8070665512 -2.3919356044 1.3586994478 -2.0114576336 
-2.5654710313 2.2846612308 -1.4472233988 -2.1714094449 -0.265156779 -2.0645832233 1.3538825584 -0.88295388436 -1.6930798638 
-1.4555377825 -2.4739949345 -2.5891166494 -2.9289005851 0.26034433266 -1.8519048249 -1.4902434606 -4.2147023479 -5.8132982086 
-6.3413313695 -1.0425269839 -1.0548940498 -0.8555308277 3.0520745894 -2.0763414882 -1.8359400755 -1.3966298776 0.22062024848 
0.77592193148 0.50536633565 -0.34613864048 0.42365328549 0.6930486711 -1.2155401125 -0.7331940556 1.2946911605 -1.2927488913 
-0.84711763998 -1.7100237899 -7.8849909802 -6.7946112878 -6.608620193 -4.8168428214 -6.2600784883 -2.5439572836 -8.0629845148 
-6.5691684787 -3.0241727271 -7.7980873784 -3.8482436333 -8.0632562759 -2.3877216994 -3.6533807112 -5.4971742836 -8.3588634207 
-6.6827266453 -4.8112784277 -6.602050534 -6.2143567486 -6.8009294477 -8.0227184688 -8.4972110755 -9.1316479788 -8.1755446982 
-8.8313967623 -7.1796261916 -7.5096763881 -7.2862941121 -4.0347513889 -8.3328350565 -7.8977866181 -7.7046401187 -4.516111653 
-6.6050071697 -7.2058003688 -8.0307891549 -6.187760288 -6.5295615895 -8.1950559357 -9.5393199756 -9.5674132675 -7.4841090365 
-9.5542533112 -8.7318175703 -7.7442641144 -7.718275147 -8.0318475175 -8.4884826008 -8.7410734139 -7.4668111052 -8.1522516648 
-7.997412583 -8.5037052757 -7.4682869259 -8.8604329474 -8.816481291 -9.3273315765 -8.8810150914 -8.7307747191 -9.6305999271 
-9.942865504 -9.5767016596 -9.3925211086 -9.8589181306 -9.4283286005 -9.7033467417 -9.8579631665 -9.3849989204 -9.2927515228 
-9.5482314641 -9.6322995029 -9.0672063899 -9.5837365122 -9.6171054649 -4.6400737234 -4.9709867974 -9.0469158192 -5.3506095409 
-6.1758951588 -5.9095363738 -9.773186115 -9.5025533805 -9.0342771951 -8.8148467953 -8.9427461365 -8.4531693801 -8.4210675501 
-9.2976396374 -8.2903194478 -9.0908348 -7.6690548336 -6.4777543488 -9.6052789094 -4.7160067491 0.32420371251 -5.9688797694 
-7.2088533274 -1.994120592 -9.0699186425 -8.35694952 -8.8866706561 -9.9781051348 -9.3105053527 -9.5490061043 -9.3559558272 
-9.9892520919 -9.4446714259 -9.974132766 -9.9874901977 -9.8680684387 -9.9644113275 -9.8392011816 -9.8678227398 -9.9705666142 
-9.9606943916 -9.9887909759 -9.971864557 7.1700468533 -1.0185064717 8.0489144452 9.6926620655 7.653357105 8.4018777919 
7.744852941 7.8825575883 8.9648763691 7.7078595274 8.2406018685 5.3082595597 9.2680671624 9.5132696521 7.2055555389 
9.0575929611 9.4990718654 8.6147150849 9.0408264244 9.3903762892 8.9890324817 9.1050445341 9.2095836677 9.0825551518 
8.9889157872 9.041898603 8.1934240776 8.1119020419 8.2250391344 7.3338317391 9.0045885705 9.2826057139 9.4540492147 
7.6815764616 8.8959358262 8.9754928335 9.9484474886 9.1443454668 9.1930746777 8.789548688 9.4503729082 9.017107611 
9.7625315161 9.0262445009 8.6930262326 7.6474407851 7.0714515802 7.2031012964 8.0441060541 8.9775263762 9.3661503491 
9.6369717401 8.6166657121 7.7042021683 7.6097597437 8.8849394164 9.2040341446 9.3085480741 8.3214801945 8.3464891175 
9.9267257641 9.7730201799 9.9620199776 9.0448741135 9.7245743837 9.9529558172 9.9500550495 9.7220327382 9.2352325924 
9.4619122519 9.6130848771 9.6739265683 9.7335222742 9.7071191959 9.6092037325 8.9282796284 8.4495305562 9.9622791623 
4.7194118318 7.7717983829 8.2010903765 6.8115849868 7.9201363164 9.9641411729 9.5292639112 9.5308672517 9.4402892898 
9.5520987317 9.3154761215 9.2239116634 9.9212757434 7.0490711711 7.0809163912 5.4817764656 8.5898829527 7.9586974509 
6.4676158386 -0.011378543916 7.3151382587 9.313474768 9.8803087242 9.2531162279 7.3834557203 9.903470502 9.8927168874 
9.88077995 9.8491392728 9.9563848846 9.8504965618 9.9888902194 9.7116593042 9.8983493513 9.8666674946 9.9812854717 
9.9387624792 9.7893609293 9.8783623682 9.9683904893 4.4522705698 6.7371152734 6.2736161598 8.0713213255 6.9002733451 
9.486336636 6.2051304669 5.9102521205 9.6988278467 6.6134450372 9.1812037563 6.6429712446 3.3405252651 8.876676748 
0.14193745583 -0.94906750876 -0.67116891609 1.6267970527 2.0261435733 -0.20947752136 -0.068633833979 -2.1299425365 -1.6349940641 
-3.7032839653 -1.7694352399 -4.4178318001 -5.3399023991 -5.4196422037 -6.0397826029 -3.8682785537 -2.5542126284 -1.9750351319 
-2.5436904126 -0.15002165363 1.3746853161 1.8991358903 -2.5435679149 2.9194330846 0.88100563042 -2.5727098284 -2.4430262249 
-3.3049685721 -4.2966892292 -2.9404982063 -4.9642729426 -4.2196814033 -3.2716919309 -3.6734212101 -5.7274260447 -5.2643504849 
-4.5579642696 -0.62207697572 -0.33492288713 -0.56977215093 -4.126369388 -6.1322747172 -5.443229549 -3.435585693 -4.58696638 
-5.77487455 -2.3222561828 -1.4902526865 -2.3309948413 -3.287289456 -1.8539090203 -1.0121827469 -1.8051892406 -1.8662661916 
-2.8943034644 -3.6532308128 -2.7104184831 0.48817542769 3.433685635 0.8009637358 1.0678647642 6.3396903041 6.0858972561 
4.2519284838 1.9509018516 4.4422083704 6.2038287048 0.91530355371 0.18698156137 4.0064460583 1.7452934311 3.7568858199 
0.086517343121 0.69277062038 2.1387856725 0.19888087598 1.9301598708 7.5592108319 6.2093039696 6.0250192544 1.5987931531 
4.6831689366 4.4965441256 3.8004563186 1.8948615081 1.583732614 2.1776379265 3.1104896901 2.9557977337 1.2368964352 
3.3003786379 2.8564212068 0.81551077812 0.10495630819 -0.59064232889 0.38011389824 0.29878847205 -0.32646301143 0.2826328872 
0.39941390408 -0.24117402291 1.1503337273 1.585762581 0.95174151884 5.9080167187 8.1464053148 5.2921129783 4.2697246995 
5.4457494354 5.2466022556 3.7471113836 4.8200859238 2.9328601212 3.4127542707 1.0576946034 6.3027708937 3.4989541194 
7.414492059 5.3550444277 -0.41035042166 0.29075444773 1.8518010996 2.2889867861 -0.61790322185 -1.4106993901 -0.99916195781 
-2.9652261995 -1.8967295067 -2.5261181945 -4.4736754496 -3.5807594938 -2.1686179293 -1.7114354292 -1.9406762199 -1.4355911962 
-2.4273611844 -3.4536950587 -3.4661083473 1.0768176344 -0.4434686445 -1.8299820775 2.7212820189 0.22849199005 -1.8843173757 
-2.2331628945 -2.3929123298 -2.4077102154 -1.9233131399 -4.6375032651 -5.3933390752 -1.3338232073 -4.2247175123 -5.0808401951 
-4.2576062155 -2.7121660408 -1.2126142381 0.18846364082 0.53637881431 -5.0057281363 -4.3073085843 -5.0592163874 -2.7743879034 
-4.2431074486 -4.1382822278 -1.2389778299 0.51881163068 -0.51747642961 -1.0836258391 -1.3841134776 -1.4967426272 -2.2646133326 
-0.35489815396 -2.1242161548 -3.6648443318 -3.0356483092 0.7646676839 2.6449670381 0.68342491705 0.32460257559 6.1464201674 
5.7060009565 0.21375091113 2.1664030234 4.8265017308 4.825296562 6.3551494346 8.1811012368 0.36141790883 -0.22047922844 
1.3196673046 -1.3028184326 1.2912997199 2.3066508635 1.2722134154 1.1201096615 5.1301050019 4.6002940117 6.2572248153 
-0.053612472899 5.9090266677 6.7283956262 1.3884250229 -2.3017288234 -0.23972756789 0.56088922617 0.76740457873 5.0264059692 
0.024622525329 -0.27231369192 -0.21516979375 0.50883039146 -0.94838858679 -0.45191779545 0.18834433528 1.4758568333 -1.7224068104 
0.1947097849 -0.80831632782 -1.1262260042 2.5765981251 1.271764305 1.8477444223 
