# vtk DataFile Version 5.1
vtk output
ASCII
DATASET POLYDATA
POINTS 356 float
0.431757 0.441617 0.221894 0.54342 0.58734 8.74138 0.733673 8.41176 0.359368 
0.840191 8.31711 8.65109 8.49823 0.831293 0.346707 8.45686 0.921119 8.66661 
8.74021 8.29392 0.353944 8.57593 8.18687 8.72406 -0.13644 0.0363632 1.27611 
-0.567286 -0.164098 2.53916 -0.853339 -0.445929 4.10262 -0.773448 -0.276082 5.57455 
-0.560655 -0.113328 6.92663 -0.0598014 0.140747 8.02146 -0.0785137 1.26565 0.0896601 
-0.0320189 2.51509 -0.40517 -0.265552 4.05814 -0.418541 -0.324723 5.70364 -0.383018 
-0.210175 6.98337 -0.15626 0.565031 7.80954 -0.0591198 0.389254 8.51732 1.29728 
0.105133 8.67113 2.6576 -0.0638002 8.73251 4.15095 -0.097739 8.75452 5.59224 
0.123689 8.67961 6.88415 0.541612 8.4878 7.8983 -0.0476326 1.28211 8.85276 
0.0359081 2.49582 9.21478 -0.287535 4.1089 9.18343 -0.0754372 5.77602 9.00534 
0.0739548 6.91896 8.80979 0.609701 7.84924 9.01753 8.90484 0.26519 1.09829 
9.16221 -0.144153 2.37146 9.24059 -0.364478 3.98809 9.21152 -0.222066 5.56753 
9.22348 -0.0608697 7.06169 8.94358 0.381857 8.12921 8.7865 1.35819 0.331896 
8.90776 2.50372 -0.376077 9.09183 4.00584 -0.333229 8.88601 5.63081 -0.177273 
9.006 6.92566 -0.00260561 8.58216 7.78534 0.00170729 8.66709 8.6129 1.20685 
9.06316 8.88414 2.56133 9.02415 8.8958 4.10451 8.97684 8.90443 5.57279 
8.86843 8.79949 6.91042 8.74988 8.58196 8.03272 8.88489 1.33798 8.80416 
8.68107 2.54107 9.00955 8.93789 4.03402 8.89257 8.87735 5.59092 8.98943 
9.00819 6.827 8.75066 8.6738 7.74607 8.88637 1.42123 0.348038 -0.286118 
2.71192 -0.039574 -0.297799 4.29413 -0.17095 -0.597998 5.7062 0.0265978 -0.482785 
6.93401 0.0748823 -0.466353 7.96015 0.435013 -0.074444 1.47118 0.524236 9.07135 
2.68461 -0.0254527 9.02654 4.23905 -0.0150021 9.25875 5.83828 0.0195737 9.1377 
6.93609 0.335065 9.02665 7.95212 0.497064 8.99659 1.42242 8.53918 -0.284253 
2.58018 8.89874 -0.325939 4.31227 9.03092 -0.580416 5.82447 9.02183 -0.761295 
7.12106 8.84349 -0.51217 7.98492 8.45584 -0.0192291 1.47775 8.43673 9.24288 
2.54505 8.93907 9.30558 4.26544 8.99271 9.49983 5.82309 8.79822 9.34379 
7.08298 8.59468 9.25324 8.02936 8.44996 9.02309 -1.10649 0.307737 4.86028 
-1.36756 6.01502 1.73588 -1.34209 5.93509 7.36058 -0.557982 0.68095 7.47037 
-0.788673 0.636859 1.82613 -0.855007 3.22942 8.42891 -0.0217041 7.75716 8.3284 
-0.716982 7.87564 6.27098 -0.960762 3.29536 0.517533 -0.813186 8.05206 3.34874 
-0.130467 7.85612 0.599599 -1.8674 5.90374 4.8986 -1.92681 2.9715 3.26943 
-1.84467 2.94215 6.31285 0.0760423 0.921093 8.30198 -1.07467 0.323139 6.30455 
-1.07039 0.329949 3.38287 -0.0640123 0.816381 0.69974 -1.02033 4.78851 8.23893 
-0.991853 6.19903 8.41325 -0.693274 6.96958 7.83138 -1.26986 7.09424 6.90425 
-0.495837 7.91073 7.4219 -1.18665 4.77499 0.694221 -0.975115 6.12104 0.57705 
-1.31544 7.03339 2.63464 -0.847812 7.00741 1.28905 -0.536463 7.8364 1.98454 
-0.890566 8.03822 4.92566 -1.41802 7.03427 4.13811 -1.79461 5.84074 3.30622 
-1.39018 7.11096 5.60577 -1.80686 5.90216 6.32203 -1.79466 4.56337 2.54274 
-1.5206 3.13112 1.77234 -0.904277 1.32897 0.951166 -1.4598 1.04398 2.5613 
-1.64428 0.804414 4.1067 -1.70188 4.55124 6.89612 -1.31418 3.08662 7.425 
-1.60172 0.821669 5.57884 -1.35508 1.0469 6.95775 -0.707574 1.22205 8.19738 
-1.98841 2.99194 4.87153 -2.01018 4.48338 5.62387 -2.03221 4.50514 4.12799 
9.80144 0.342422 4.79471 9.82867 5.90816 1.68436 9.64856 5.83962 7.47718 
9.25947 0.747212 7.5662 9.75937 0.728865 1.61971 9.55409 3.04457 8.54957 
8.91682 7.64376 8.2557 9.44121 7.86675 6.25165 9.33973 3.12898 0.58543 
9.2724 7.89744 3.35203 9.1243 7.6785 0.708053 10.1598 5.72875 4.82723 
9.90626 2.86227 3.17194 10.0309 2.90563 6.23417 8.79601 1.06397 8.32638 
9.45332 0.491798 6.26813 9.70026 0.48538 3.23399 9.28942 0.900798 0.421687 
9.6518 4.65223 8.23948 9.56541 5.98068 8.4142 9.348 6.82448 7.89891 
9.62609 6.92123 6.78633 9.34918 7.80608 7.4839 9.65633 4.62989 0.826927 
9.46019 6.01501 0.518499 9.878 6.98504 2.63724 9.30356 6.8135 1.35262 
9.37087 7.90187 1.8304 9.47202 7.82746 4.82074 9.95356 6.89759 4.1366 
9.80291 5.70086 3.23954 9.71606 6.90089 5.55416 10.0595 5.81176 6.28775 
10.0382 4.50888 2.50921 9.95968 3.16469 1.68637 9.345 1.55058 0.988824 
9.54368 1.38466 2.54125 9.6515 1.18635 4.0652 10.089 4.48442 6.93166 
9.67053 3.04961 7.44305 9.72769 1.11117 5.54524 9.85457 1.24921 6.96 
9.3626 1.54186 8.14781 10.1649 2.8739 4.86651 9.95516 4.39918 5.57767 
10.1594 4.34897 4.05254 3.91153 -1.4044 1.54507 3.89784 -1.49776 7.55616 
8.80732 -1.05599 4.84623 8.45688 -0.302208 7.64013 8.65517 -0.671292 1.45284 
6.54808 -0.642756 8.43085 1.46886 -0.0482603 8.39035 1.25722 -1.15294 6.31605 
6.59883 -0.601806 0.376882 1.14129 -1.1884 3.30504 1.45152 -0.140291 0.58203 
3.95826 -2.01347 4.89979 6.51527 -1.73173 3.21961 6.65349 -1.66108 6.45464 
8.32492 0.350166 8.52728 8.90705 -0.915922 6.46753 8.72836 -0.913853 3.1413 
8.40132 0.168542 0.432693 5.20864 -0.926382 8.39358 3.80988 -0.703477 8.31357 
2.56468 -0.924874 7.928 2.56885 -1.41814 6.8019 1.29728 -0.623106 7.51802 
5.24692 -1.03735 0.59827 3.88118 -0.842625 0.439013 2.53906 -1.46469 2.49115 
2.6638 -0.9307 1.06372 1.36977 -0.757264 1.86902 1.21437 -1.20835 4.88835 
2.58931 -1.74574 4.06417 3.96475 -1.79472 3.20308 2.60937 -1.66269 5.53222 
3.9812 -1.84323 6.3847 5.29311 -1.69757 2.49021 6.49259 -1.29555 1.51984 
7.85606 -0.372452 0.774949 7.95504 -1.12806 2.30502 8.03054 -1.36752 3.99508 
5.34664 -1.66865 6.95879 6.60507 -1.18071 7.53485 8.07683 -1.26437 5.66076 
8.02518 -0.869591 7.0423 7.93373 -0.255511 8.2861 6.55506 -1.79671 4.89093 
5.33529 -1.92274 5.63866 5.28055 -1.90515 4.03419 3.74359 9.87605 1.79707 
3.87526 9.82112 7.54892 8.58619 9.35223 4.85922 8.32826 8.89442 7.47985 
8.37614 8.98625 1.89891 6.52638 9.06164 8.5449 1.51164 8.75351 8.31373 
1.08473 9.14164 6.2046 6.48662 9.266 0.55884 1.02575 9.25835 3.3335 
1.36292 8.77304 0.718746 3.83442 10.1506 4.83303 6.72372 9.86644 3.31857 
6.78816 9.87323 6.32372 8.24124 8.48966 8.33533 8.46995 9.16114 6.27201 
8.48395 9.21363 3.27036 8.27771 8.57961 0.553607 5.0574 9.45749 8.37338 
3.71403 9.19344 8.44114 2.5321 9.43213 7.98628 2.43087 9.61786 6.82626 
1.25885 9.21579 7.44942 5.15104 9.6808 0.813872 3.69312 9.34534 0.589738 
2.33851 9.67725 2.61747 2.42166 9.52593 1.10328 1.1891 9.25671 1.8697 
0.882302 9.38004 4.88448 2.33938 9.85862 4.10663 3.80753 9.92023 3.29763 
2.36807 9.75868 5.51994 3.83354 9.83779 6.23102 5.30068 9.93511 2.55444 
6.69724 9.75648 1.74179 7.89412 9.28049 0.951112 7.9534 9.54967 2.5348 
7.99802 9.66919 4.1503 5.20102 9.71546 6.89461 6.68418 9.61339 7.59102 
8.08485 9.75126 5.57412 7.94838 9.39674 6.9522 7.82926 9.06761 8.18161 
6.64826 9.83192 4.88898 5.27425 10.1074 5.601 5.3336 10.1202 4.11153 
1.73302 3.84272 -1.61805 7.56123 3.82149 -1.72124 5.03952 8.47432 -1.16031 
7.70585 8.36236 -0.757443 1.89388 8.21034 -0.720189 8.42723 6.42142 -0.893729 
8.35144 1.55275 -0.533406 6.40228 1.13062 -1.22726 0.625562 6.42237 -0.88579 
3.45396 1.24294 -1.25624 0.912994 1.3925 -0.38429 4.8926 3.84261 -2.18253 
3.31519 6.55018 -1.74355 6.41816 6.67449 -1.81615 8.38106 8.07467 -0.118826 
6.44421 8.35746 -0.986157 3.47092 8.44438 -1.05467 0.866892 8.09024 -0.235101 
8.3095 4.99422 -1.12408 8.28187 3.58852 -0.922166 7.91055 2.55483 -1.12999 
6.88309 2.51136 -1.58148 7.37567 1.2509 -0.775082 0.786271 5.11556 -1.27605 
0.564085 3.6631 -1.1318 2.64701 2.48416 -1.62216 1.25435 2.50672 -1.32578 
1.94595 1.27968 -0.989992 4.96367 1.13461 -1.3592 4.14367 2.42758 -1.86887 
3.34799 3.9247 -2.00012 5.61583 2.45063 -1.83842 6.31627 3.82155 -1.90903 
2.51609 5.23574 -1.96669 1.75751 6.45257 -1.52819 1.12445 7.66327 -0.986556 
2.59584 7.87007 -1.42819 4.20178 8.01848 -1.69947 6.95588 5.25058 -1.84775 
7.5543 6.62917 -1.37322 5.85519 8.04903 -1.59954 7.08396 7.93176 -1.20244 
8.15664 7.67329 -0.572189 5.00265 6.71803 -1.90872 5.68052 5.29405 -2.08677 
4.11782 5.41701 -2.24367 1.83865 3.85211 10.0504 7.45836 3.79259 9.89944 
5.01993 8.27919 9.66761 7.45286 7.95868 9.22215 2.08301 7.94275 9.19194 
8.57767 6.4645 9.62103 8.21327 1.60244 9.1211 6.26525 1.21129 9.82096 
0.717191 6.48707 9.62926 3.44262 1.14143 9.75558 0.907849 1.45832 9.15454 
4.90712 3.883 10.3289 3.28866 6.49944 10.0751 6.40252 6.59739 10.1374 
8.13182 7.78294 8.79291 6.42131 8.22515 9.45236 3.46821 8.21791 9.53594 
1.04133 8.04531 9.11465 8.16115 5.09344 9.71512 8.45289 3.60648 9.67886 
7.87286 2.55202 9.60245 6.90873 2.47118 9.91456 7.39346 1.33635 9.39501 
0.715456 5.11675 9.73811 0.753276 3.61427 9.50276 2.73076 2.4524 9.89102 
1.34748 2.5371 9.8376 1.9434 1.32707 9.64637 5.0015 1.0719 9.68889 
4.12793 2.41429 10.2808 3.34396 3.84009 10.2444 5.61405 2.43489 10.0336 
6.2761 3.84715 10.3696 2.5734 5.1464 10.2113 1.90548 6.43186 9.89147 
1.23797 7.56672 9.57462 2.69834 7.73161 9.9501 4.1758 7.76191 10.0535 
6.96049 5.22658 10.1982 7.50198 6.51181 9.80486 5.7909 7.87126 10.065 
7.0217 7.77516 9.82692 8.0933 7.58228 9.35427 4.91824 6.61126 10.1672 
5.62999 5.34533 10.332 4.11788 5.2695 10.5003 
POLYGONS 709 2124
OFFSETS vtktypeint64
0 3 6 9 12 15 18 21 24 
27 30 33 36 39 42 45 48 51 
54 57 60 63 66 69 72 75 78 
81 84 87 90 93 96 99 102 105 
108 111 114 117 120 123 126 129 132 
135 138 141 144 147 150 153 156 159 
162 165 168 171 174 177 180 183 186 
189 192 195 198 201 204 207 210 213 
216 219 222 225 228 231 234 237 240 
243 246 249 252 255 258 261 264 267 
270 273 276 279 282 285 288 291 294 
297 300 303 306 309 312 315 318 321 
324 327 330 333 336 339 342 345 348 
351 354 357 360 363 366 369 372 375 
378 381 384 387 390 393 396 399 402 
405 408 411 414 417 420 423 426 429 
432 435 438 441 444 447 450 453 456 
459 462 465 468 471 474 477 480 483 
486 489 492 495 498 501 504 507 510 
513 516 519 522 525 528 531 534 537 
540 543 546 549 552 555 558 561 564 
567 570 573 576 579 582 585 588 591 
594 597 600 603 606 609 612 615 618 
621 624 627 630 633 636 639 642 645 
648 651 654 657 660 663 666 669 672 
675 678 681 684 687 690 693 696 699 
[...]
CELL_DATA 708
SCALARS scalars double
LOOKUP_TABLE default
-5.2740775535 -1.1841412132 -5.49088626 -6.1915027416 -5.9773601716 -4.0218015116 -3.0795392001 -5.0838171089 -4.611441511 
-5.4505388586 -5.2472445381 -4.811249278 -3.2949116374 -1.6366400162 -0.20454468839 -0.89502147414 -1.2976982835 -0.10004605808 
2.0787317865 1.6363272583 2.6064978494 3.7484552833 6.3913580566 3.8711397705 6.5555994941 6.7237386793 7.2635201197 
6.9540714164 6.9616046529 2.780258461 4.66090148 2.6094941472 6.1591164125 -1.1890374593 -1.6063978444 1.2142653046 
-0.45700702374 -0.14212509702 0.76601310599 3.2457460934 5.6302045095 5.0863156435 5.3780426316 7.8800946887 7.207575834 
7.6367066931 7.0008488282 7.0760771534 4.0133139711 3.474497437 4.1818047218 1.7653705851 5.7680826589 5.786244455 
6.5345066145 6.499904017 4.7503556372 7.5358766023 7.529165828 2.4957933158 3.3588389915 3.4070241332 6.183263627 
3.4684687542 2.1075261019 3.7200191794 3.684403593 5.6219887098 4.8825222268 4.698779947 1.1274190706 -0.8859232042 
-0.41354997198 -0.12903403068 -2.3626087594 -5.3101027695 -5.4204516859 -1.8257789278 -6.7517403919 -5.8743770224 -5.1918811775 
-6.2776185572 -5.7338182899 -1.308031199 -1.1793487045 -1.5807441305 0.852404409 -0.79110810346 -0.44804363641 -0.677270006 
-1.8010108955 -5.946304045 -4.4183577444 -5.2649024788 -1.3172623691 -2.9211494013 -7.044348762 -6.4906621902 -8.1243418125 
-1.1509604148 -0.82329385157 -0.90322208705 -7.1403971456 -1.451243246 -1.4293307071 -1.6570614164 0.0089265113212 1.0091174474 
1.2129990093 0.24019784936 0.14692871778 1.4448755564 1.4615120822 0.86424723164 1.0819998303 -0.47454896409 -0.63364689634 
-0.21860808295 -3.292087599 -0.45912002304 -4.3631736072 -3.4689264969 -3.226041545 -6.703025238 -2.5415099014 -2.5905793203 
-5.4961249325 -2.6346449834 -7.1572208099 -2.9495642876 -7.5798515973 0.34441005178 0.5417895753 -0.55830178223 -0.12023901206 
1.1301785796 0.87755140398 -0.18798226281 1.815197033 2.1518832235 2.3673577312 1.0441163969 3.1006663785 4.749458649 
5.1364982304 2.4676286771 2.6709024466 2.8580768622 2.7434935229 3.1166011118 4.2164499287 -1.040626267 -0.88795920246 
0.69295020592 -1.3323433204 1.5586216924 -0.29235084342 3.3440976514 5.2095348953 0.36942816512 1.283791265 2.2493044646 
5.3882567259 4.8200687151 4.9891820042 2.5522152326 0.45401199318 4.2051481501 3.592706696 0.15457403221 1.5883498982 
3.779185072 4.1296075812 4.6392913922 5.5802749616 3.1894010611 4.0189033005 -0.54005351004 0.42096112112 -0.83992261979 
2.2791487787 3.2854215281 2.1972562473 3.3846829613 2.6186349422 2.6465105464 5.1039290752 3.6326443213 0.1623141895 
-1.049933375 -0.71325907264 0.75102634709 -4.0213535911 -0.83269643859 -2.7072080738 -1.9885358892 5.0863652787 -1.7407960141 
-2.11885555 1.315918906 4.0341374251 -2.332546679 -1.2082652174 -2.93632633 1.8846100674 -1.6708853303 -0.40260185421 
-1.5360556214 -1.3802054963 -3.6001405063 -3.4524410421 -4.4090431742 -2.7931086049 -1.6651697466 -4.2082120163 -7.294441758 
-6.9156981367 -1.5271697786 0.22034601788 -0.088000080874 1.378229085 -2.0301142318 -2.2404783687 -2.6299357879 0.06994002907 
1.7493966411 -1.105869986 -0.2482452299 -1.1536292492 1.2309556379 1.7045436449 2.2464284207 -0.75975026818 -0.79073831885 
0.9199051365 0.75334940694 -7.0969549669 -3.1432242328 -6.1803282039 -3.6642391266 -6.5726626661 -4.7633353156 -7.0768763754 
-7.6470340682 -5.7424325693 -7.7399983869 -3.4804266397 -7.6516566276 -1.9143187577 -1.9091898036 -6.823299225 -6.9092353751 
-7.6283121985 -5.7336066404 -6.6176674547 -7.8628351319 -6.4565380549 -8.8193857479 -7.4526951344 -8.6313861422 -8.6563393741 
-8.5048648933 -8.6344733235 -7.178118243 -7.8991882903 -7.2794024524 -6.9244627295 -7.1813268597 -7.6910217356 -7.3643627102 
-7.8686694136 -7.979049758 -8.899390785 -7.3338476239 -7.3639047414 -8.2836429973 -9.1020012835 -8.7633529772 -8.2741075741 
-8.7139693755 -8.7651201828 -8.5774195852 -8.3228304257 -8.243933326 -8.9204760856 -8.6884237554 -7.9159889089 -8.8137421847 
-8.1300245508 -7.9257436957 -8.4583623676 -9.1057112417 -8.7884428089 -9.4645025966 -9.3772035537 -9.141757742 -9.680534753 
-9.8516977253 -9.7534442789 -9.5047208908 -9.7320291018 -9.4248852218 -9.5570304137 -9.7247409136 -9.4329807663 -9.3237491137 
-9.4108915223 -9.4366355672 -8.4681940321 -9.6107451508 -9.4266399816 -6.71605455 -4.1987068308 -9.4203308504 -7.0884797264 
-7.0941677667 -7.3836009112 -9.0146549515 -8.9471695383 -9.3981590749 -8.2734675582 -8.3789597891 -8.8131619057 -8.9890149065 
-8.4113874607 -8.7601010573 -8.7987790539 -7.0747694538 -7.7531155658 -9.5199750047 -5.7308204879 -5.7006865119 -7.8698129489 
-3.1806524138 -5.8719312979 -8.1488917154 -8.5845138347 -8.3503778914 -9.4455490989 -9.5159278846 -9.6607929973 -9.5037636197 
-9.7910050695 -9.5908606445 -9.9348977895 -9.8100145576 -9.8982245887 -9.9178689659 -9.7249467692 -9.9108317181 -9.9724827743 
-9.9282620617 -9.85965175 -9.9545410114 8.6888234668 8.4001440706 8.2894487294 8.1731972395 7.229651445 6.749802137 
8.9801581607 7.9760251509 8.6596353353 7.8966453911 8.6333413706 6.0861171459 8.5299292937 8.6528317811 8.0763458995 
8.2174829179 9.473914293 8.794467562 8.7431115459 9.7545812499 8.698157119 9.5966979174 7.7895767321 9.4416515982 
9.5618576479 9.0297326568 7.5782798848 8.5655615423 7.4025467818 8.625413596 8.2120458224 8.3363704218 9.3549981827 
8.631785436 9.4674414903 9.4258495882 9.0758784993 9.2856041041 9.1510154767 9.2813628184 9.7358199169 9.4600040551 
8.083180514 9.5441338317 8.6849946935 7.9756528806 8.9487928389 8.947476645 7.8825282636 8.6029723813 8.0872868501 
9.1548355715 9.1380948839 9.415236223 9.2619051194 8.8669614818 9.2469220806 9.2715281277 8.5873757851 8.34133471 
9.8797384838 9.8194455982 9.8690751507 9.180012115 9.6384182423 9.8887485915 9.8791351802 9.7151855773 9.1996328337 
9.265331325 9.5845816776 9.8849076667 8.9206541192 9.9378487829 9.8818531024 6.4904911749 7.3303949217 9.7630895251 
6.1271297002 8.5763474775 7.9402851961 7.9188743582 6.9285805281 9.759709677 9.1251938944 9.4910790451 9.6811934579 
9.7970899927 8.4131125326 9.8524959163 9.3402095764 7.0612648019 7.738787013 7.1843769793 8.7130769187 4.8190693566 
7.4053814447 8.3276240089 6.0545657494 8.4704592658 9.3883647321 9.1541181162 8.3313203459 9.9668537367 9.9045994908 
9.9436021153 9.5684582079 9.9638971199 9.7219188617 9.5649715666 9.8650251655 9.8778050222 9.9930633252 9.9089470289 
9.9964429797 9.800036791 9.8374235004 9.7866396135 4.3863102019 6.3114964182 5.9533444037 4.9703567444 6.4998541884 
6.6349331096 7.9454808829 7.4067823448 7.4428017368 6.9042674682 6.4411499587 6.2703574655 5.1336953894 6.5863327266 
3.5603710862 -1.1233620653 -1.230787718 -0.045982891555 0.15038569862 -0.51402116724 1.5694049845 -2.9702945671 -3.715262741 
-3.6176741255 -3.860292085 -3.764729916 -3.796645159 -4.6188527015 -4.5726614694 -3.8152771872 -1.2089367009 -2.1096224086 
-0.55251216327 -4.3121220343 1.9259946834 1.6907111478 -0.33787573359 1.7317336198 -0.0580235 0.22912297953 -1.3721328925 
-3.7864777961 -4.7387444618 -3.6173826699 -5.0909440828 -3.2100050952 -3.628771906 -3.0142538404 -5.3253652292 -5.2986240536 
-4.5209546536 -0.68238945764 -2.070460148 -1.0881495614 -3.297036375 -5.8852973842 -5.7320686594 -3.7582206285 -4.6529463695 
-5.5259504593 -1.4560904722 -1.5180724465 -1.7362157986 -3.0910543964 -1.4439610889 -1.7970987812 -1.5373629333 -2.2828974953 
-3.7726688895 -4.1487588674 -3.5292062269 -0.24983624672 1.9409350255 2.5231958937 0.98483600632 6.3249774988 6.5434584807 
1.3628462671 4.6065349797 7.1731107766 7.3972680728 7.1437862869 7.173307635 1.5458567397 1.2791855882 2.4826390938 
1.2957598019 1.5788032012 0.98164192759 0.90264926031 2.7375423838 6.0561364765 5.9222236057 7.2876395073 3.1557182603 
5.8732041089 1.1574758382 2.2879741855 2.6724972568 3.1591076822 2.4804606266 2.97121368 7.425043976 1.8310522662 
0.93864370085 1.919467793 0.92121083107 -0.24347819942 -0.37300466622 -0.39669763183 2.7773142883 -0.98322344189 -1.1683944191 
-0.77311376132 0.10943829067 3.257304143 1.5615959104 1.7561875816 3.5767618995 -2.5226327671 5.7562349344 3.0109020098 
6.1381834894 3.6224911979 0.97873821693 4.0486798352 1.6473431861 2.569143826 -1.1036993173 4.2472679028 6.7794471092 
5.1629045492 1.0412374107 0.19367991587 1.4398784621 -0.10065577814 -1.8839157156 -1.1264742181 -0.15477021855 -1.2018651817 
-3.0186466518 -2.5352238436 -2.7960483169 -4.6193594426 -3.7896087932 -2.3665471245 -1.8907916863 -0.88872691509 -1.7070815207 
-1.9417871257 -3.5694832059 -4.9095648417 2.0775813918 3.4426176523 -1.508065187 0.60956403517 1.5988395089 -1.5336195653 
-1.4249074411 -1.507824377 -3.4674535531 -1.7937737951 -4.6448834352 -3.3852249585 -3.3869621415 -2.8398143484 -4.9404862466 
-4.6786207315 -3.7497085818 0.25815730753 0.43351220554 -0.44150076421 -2.6137999319 -4.8689362315 -5.4588658349 -2.4131905655 
-3.8150502135 -4.1346539543 -1.9171748777 -0.040768727272 -1.2391834743 -1.2154995959 -2.1589984758 -1.3934256747 -2.7263060896 
-1.1931137742 -2.1111404685 -3.9141092635 -3.0909774933 0.19851227367 0.77662062394 1.7106988633 1.1118417173 1.767860329 
2.6803823888 0.66926462452 5.3867408995 4.8056588963 3.9374055095 7.0379528517 8.8625990927 0.36615640391 1.4854520282 
1.1505732003 -0.66290744458 1.6274539017 0.1625090275 1.1954708267 1.5060677615 5.5450373369 3.7550101362 7.6005302669 
4.3992138429 1.1420890315 7.8902777371 3.1449264716 9.4150557342 2.9911082261 0.95534262912 1.4439883737 6.4760876963 
0.66624662313 0.59501309695 0.8993179022 0.87684033966 -0.66307758231 0.12388508375 0.70621289002 2.0004383261 -1.5015257073 
-0.5041773231 -0.79698931023 -0.58159424261 2.8131802733 1.4078454611 1.8334791078 
