# vtk DataFile Version 5.1
vtk output
ASCII
DATASET POLYDATA
POINTS 356 float
0.330362 0.364149 0.0970556 0.523501 0.50085 8.60835 0.653865 8.22328 0.254679 
0.814359 8.24728 8.60361 8.60316 0.718308 0.0433395 8.4679 0.857429 8.65232 
8.47648 8.11418 0.38015 8.40503 8.03218 8.48396 -0.159793 0.0818398 1.21647 
-0.600636 -0.211992 2.637 -0.797323 -0.306903 4.06912 -0.813332 -0.319868 5.51036 
-0.548696 -0.0361879 6.77969 -0.0663459 0.246031 7.74245 -0.116689 1.25233 -0.0322087 
-0.0287286 2.50409 -0.487548 -0.311028 4.09312 -0.5188 -0.344349 5.59138 -0.447795 
-0.148649 6.79672 -0.101208 0.434805 7.75744 -0.213419 0.306668 8.55882 1.19865 
0.0447773 8.477 2.63742 -0.173185 8.73084 4.07527 -0.00122266 8.59676 5.478 
0.119709 8.63551 6.76713 0.519778 8.42363 7.86595 0.0245188 1.38133 8.57689 
0.0591381 2.49004 9.12404 -0.220225 4.06814 9.0084 -0.257858 5.71014 9.10723 
-0.044565 6.88009 8.85205 0.745098 7.6571 8.82296 8.877 0.215865 0.964667 
9.11957 -0.0922684 2.30838 9.19538 -0.378568 3.95422 9.42012 -0.435097 5.6197 
9.24743 -0.108981 7.03162 8.99696 0.229473 8.16619 8.73076 1.38568 0.26085 
8.76247 2.47139 -0.412963 8.84459 3.96049 -0.350841 8.96928 5.54657 -0.259113 
8.89347 6.71775 0.0589151 8.78558 7.68288 -0.0671249 8.60558 8.3853 1.23323 
8.71962 8.6579 2.58105 8.85325 8.77049 4.03737 8.97061 8.89944 5.52989 
8.68777 8.71024 6.79293 8.60444 8.38828 7.88351 8.8271 1.35252 8.69015 
8.63046 2.50487 8.95315 8.88306 4.02426 8.87154 8.86003 5.53927 8.92525 
8.85233 6.75967 8.63454 8.49205 7.62302 8.7913 1.48829 0.361271 -0.161191 
2.66518 -0.25541 -0.463894 4.25857 -0.261466 -0.669501 5.66033 -0.0324198 -0.650002 
6.87959 0.101485 -0.561917 7.84737 0.459142 -0.0732588 1.49467 0.626389 8.82843 
2.53237 -0.172571 8.90998 4.23745 0.00261283 8.85511 5.72613 0.0200517 9.14875 
6.86427 0.367869 8.87843 7.88576 0.599672 8.93322 1.39874 8.44846 -0.347351 
2.50268 8.91146 -0.430466 4.3076 8.96652 -0.741893 5.74766 8.88201 -0.797898 
6.97831 8.74353 -0.624748 7.87202 8.41558 -0.112195 1.5132 8.20294 9.04346 
2.56847 8.5858 9.00833 4.21214 8.7795 9.32396 5.75118 8.74989 9.38351 
6.94605 8.46321 9.21637 7.81216 8.29198 8.78955 -1.4633 0.10135 4.77248 
-1.44557 5.95219 1.71469 -1.42884 5.93577 7.38726 -0.834994 0.500506 7.39204 
-0.8453 0.493732 1.79293 -0.847311 3.19092 8.40135 0.00121646 7.66562 8.3037 
-0.847588 7.93096 6.1904 -0.88236 3.31307 0.537976 -0.94261 7.89669 3.31669 
-0.0650395 7.55045 0.602467 -1.93487 5.82413 4.84394 -2.04666 3.0167 3.24984 
-2.0686 3.03291 6.20454 -0.261622 0.623109 8.57781 -1.33551 0.151955 6.17936 
-1.51213 0.143089 3.23686 -0.184566 0.816337 0.62565 -1.16115 4.76224 8.22612 
-0.779263 6.00098 8.1619 -0.807863 6.91025 7.82108 -1.22528 6.97904 6.78457 
-0.45796 7.7805 7.31995 -1.1408 4.76737 0.649849 -0.927056 5.98225 0.590451 
-1.36894 6.85857 2.61752 -0.927795 6.91128 1.2629 -0.643377 7.76564 1.89707 
-0.936606 7.88385 4.844 -1.53283 7.02021 4.11735 -1.86207 5.84733 3.27183 
-1.55176 7.01155 5.53738 -1.83332 5.90478 6.22193 -1.8169 4.56165 2.52905 
-1.62933 3.12975 1.70047 -0.906094 1.31256 0.932887 -1.34761 1.0406 2.55785 
-1.74043 0.844826 4.05176 -1.85398 4.55459 6.76395 -1.59607 3.04939 7.42657 
-1.63 0.828951 5.4941 -1.44589 1.00518 6.77491 -0.782559 1.26257 8.01051 
-2.0612 2.97798 4.84504 -2.12787 4.51842 5.49784 -2.14058 4.47854 4.09014 
9.55744 0.347249 4.68007 9.72013 5.83723 1.76489 9.59721 5.70747 7.32577 
9.00581 0.921518 7.42162 9.42031 0.729312 1.50365 9.50026 3.0582 8.46467 
8.80347 7.44633 8.12528 9.40276 7.84056 6.21936 9.18756 3.20856 0.519579 
9.44214 7.80587 3.29711 8.96305 7.66429 0.68814 9.96346 5.68653 4.78885 
10.128 2.81025 3.21475 9.9945 2.93634 6.26396 8.86728 1.04643 8.33243 
9.34857 0.552385 6.18046 9.68822 0.393542 3.29681 8.86786 1.075 0.543374 
9.54231 4.4851 8.01677 9.55297 5.85358 8.29329 9.37011 6.79783 7.79781 
9.52697 6.74562 6.73168 9.23162 7.72989 7.33461 9.53761 4.61868 0.654725 
9.4849 5.87705 0.658872 9.77092 6.85108 2.55371 9.31321 6.84842 1.23875 
9.27049 7.73447 1.89393 9.4571 7.92229 4.79915 9.64034 6.78398 4.00269 
9.91269 5.71983 3.21135 9.77174 6.867 5.51444 9.92483 5.70182 6.21839 
9.83371 4.37379 2.41584 9.92174 2.9971 1.65408 9.39797 1.6119 0.982954 
9.51517 1.3349 2.4531 9.74467 1.1822 3.98209 9.98592 4.37371 6.79661 
9.58405 3.05506 7.36235 9.84812 1.10751 5.50235 9.71541 1.19214 6.82059 
9.39015 1.48627 8.07231 9.87214 2.85495 4.71624 10.0118 4.37721 5.48165 
10.2096 4.4271 3.99321 3.83384 -1.46111 1.58904 3.87034 -1.36078 7.38432 
8.63385 -0.92606 4.72357 8.30887 -0.204241 7.51896 8.40661 -0.399846 1.57705 
6.46882 -0.530264 8.38675 1.40612 -0.249715 8.26645 1.17761 -1.18102 6.19268 
6.39582 -0.61853 0.418527 1.10773 -1.36449 3.2878 1.40974 -0.283427 0.496539 
3.91424 -2.0106 4.87437 6.48367 -1.79184 3.1737 6.49534 -1.66125 6.33298 
8.10613 0.538405 8.23351 8.56531 -0.65929 6.31473 8.75531 -1.01195 3.058 
8.18385 0.267967 0.420951 5.18335 -0.987695 8.18512 3.78128 -0.937962 8.34801 
2.60481 -0.921151 7.71278 2.58809 -1.43656 6.72911 1.22637 -0.827113 7.31245 
5.20429 -1.18589 0.487727 3.81438 -0.884013 0.390027 2.5127 -1.5608 2.53016 
2.575 -1.10642 1.08466 1.23364 -0.840205 1.77628 1.16607 -1.18393 4.79829 
2.56844 -1.84571 4.05864 3.90937 -2.03686 3.16307 2.58371 -1.67297 5.52621 
3.95341 -1.91627 6.26991 5.20908 -1.80857 2.51059 6.52482 -1.3519 1.48943 
7.78594 -0.533137 0.614243 7.94203 -1.08776 2.26446 8.01741 -1.41155 3.96895 
5.24914 -1.68612 6.79907 6.54641 -1.16385 7.50539 8.16042 -1.40107 5.63265 
8.09512 -1.05246 7.09962 7.85222 -0.312222 8.32127 6.50545 -1.98593 4.86928 
5.2728 -1.9998 5.50572 5.17854 -2.10524 4.0042 3.69049 9.83876 1.77642 
3.80362 9.52784 7.38759 8.397 9.2301 4.78929 8.35609 8.98368 7.55221 
8.35389 9.05191 1.73937 6.42778 8.87934 8.40113 1.42348 8.80124 8.3356 
1.04372 9.25953 6.19065 6.48514 9.16551 0.483149 0.987324 9.26618 3.2705 
1.41135 8.70901 0.721762 3.7088 9.8296 4.80026 6.59316 9.87613 3.27961 
6.63754 9.84395 6.29756 8.19406 8.50783 8.37048 8.36994 9.13398 6.19149 
8.54341 9.39752 3.29615 8.28095 8.71581 0.423486 5.10115 9.36643 8.32591 
3.6968 9.29882 8.42901 2.52027 9.25916 7.93438 2.41899 9.50019 6.78071 
1.27317 8.90041 7.3382 5.08468 9.6698 0.770717 3.64597 9.3417 0.521518 
2.37772 9.49782 2.63369 2.42593 9.45138 1.10942 1.12761 9.20527 1.88587 
0.913651 9.16512 4.81668 2.26121 9.79711 4.09345 3.77758 10.0087 3.22753 
2.30309 9.66542 5.46104 3.80141 9.98097 6.20121 5.2642 9.75477 2.53812 
6.51887 9.70607 1.69791 7.60751 9.07979 0.945089 7.70954 9.31075 2.54401 
7.79066 9.61617 4.06488 5.09297 9.67317 6.86552 6.54579 9.60513 7.50444 
7.94303 9.69487 5.55772 7.79491 9.2309 6.77418 7.66206 8.91633 8.05809 
6.62078 9.68907 4.85919 5.1779 10.0687 5.50065 5.18343 10.0781 4.10078 
1.74809 3.73796 -1.75241 7.29274 3.73142 -1.57958 5.01193 8.34776 -1.20544 
7.43571 7.98763 -0.534542 1.9002 8.05728 -0.80268 8.38185 6.34467 -0.992744 
8.25963 1.49636 -0.586834 6.21175 1.14764 -1.22814 0.62045 6.25706 -1.01729 
3.45167 1.27928 -1.2554 0.790183 1.33002 -0.697354 4.86549 3.80225 -2.29047 
3.29399 6.38854 -1.97244 6.34276 6.53317 -1.91805 8.29984 8.01271 -0.118504 
6.37804 8.32603 -1.1228 3.41867 8.41856 -1.17204 0.852496 8.06036 -0.390251 
8.13109 4.92849 -1.23077 8.30753 3.56894 -1.17891 7.73351 2.57822 -1.0815 
6.81859 2.38354 -1.76008 7.3623 1.21915 -0.99799 0.783536 5.04314 -1.45964 
0.494033 3.65436 -1.3039 2.65252 2.39962 -1.78358 1.30923 2.56582 -1.30783 
1.90835 1.25572 -1.16618 4.91612 1.03541 -1.4936 4.15804 2.39594 -1.95717 
3.36241 3.82771 -1.99979 5.52528 2.44427 -1.86775 6.2155 3.78307 -1.91504 
2.53001 5.12869 -2.05818 1.73374 6.38421 -1.61821 1.07163 7.5517 -0.898286 
2.60325 7.74205 -1.54708 4.22669 7.86977 -1.71326 6.8279 5.17237 -1.98547 
7.30271 6.49297 -1.36275 5.74485 7.89273 -1.63757 7.01834 7.83602 -1.34614 
8.09021 7.62048 -0.681217 4.92937 6.51765 -2.032 5.61838 5.22422 -2.14062 
4.08336 5.2243 -2.26831 1.86853 3.70477 9.99005 7.24878 3.80952 9.85805 
5.03033 8.14697 9.57014 7.51381 7.95747 9.26548 1.98703 7.98229 9.39926 
8.40703 6.3254 9.49226 8.12651 1.69177 9.07078 6.31043 1.205 9.54186 
0.771763 6.30169 9.4071 3.41783 1.13518 9.59691 0.848179 1.38578 9.24167 
4.78347 3.71224 10.4455 3.31303 6.41248 10.211 6.28225 6.45945 10.0297 
8.22836 7.89688 8.90178 6.18941 7.93047 9.32926 3.38073 8.33177 9.76184 
1.08144 7.88562 8.9734 8.08707 5.03208 9.69717 8.35661 3.55454 9.69885 
7.77051 2.51155 9.54484 6.80602 2.37954 9.94824 7.30921 1.34701 9.3392 
0.846428 5.00245 9.67952 0.677402 3.56278 9.69785 2.65501 2.37347 10.0149 
1.41144 2.52749 9.52413 2.00553 1.2861 9.51961 4.88493 0.978558 9.6331 
4.17648 2.35009 10.0636 3.34705 3.74 10.1799 5.52031 2.40869 9.98343 
6.27896 3.85503 10.3679 2.5678 5.08871 10.1363 1.89706 6.32271 9.83385 
1.2191 7.42388 9.48616 2.74636 7.5057 9.68268 4.16914 7.67467 9.84412 
6.86023 5.17203 10.2105 7.40438 6.33375 9.79739 5.67371 7.64785 10.0793 
6.95091 7.65513 9.69505 7.97359 7.4251 9.20704 4.81734 6.51367 10.1382 
5.50589 5.14729 10.238 4.12962 5.17488 10.4259 
POLYGONS 709 2124
OFFSETS vtktypeint64
0 3 6 9 12 15 18 21 24 
27 30 33 36 39 42 45 48 51 
54 57 60 63 66 69 72 75 78 
81 84 87 90 93 96 99 102 105 
108 111 114 117 120 123 126 129 132 
135 138 141 144 147 150 153 156 159 
162 165 168 171 174 177 180 183 186 
189 192 195 198 201 204 207 210 213 
216 219 222 225 228 231 234 237 240 
243 246 249 252 255 258 261 264 267 
270 273 276 279 282 285 288 291 294 
297 300 303 306 309 312 315 318 321 
324 327 330 333 336 339 342 345 348 
351 354 357 360 363 366 369 372 375 
378 381 384 387 390 393 396 399 402 
405 408 411 414 417 420 423 426 429 
432 435 438 441 444 447 450 453 456 
459 462 465 468 471 474 477 480 483 
486 489 492 495 498 501 504 507 510 
513 516 519 522 525 528 531 534 537 
540 543 546 549 552 555 558 561 564 
567 570 573 576 579 582 585 588 591 
594 597 600 603 606 609 612 615 618 
621 624 627 630 633 636 639 642 645 
648 651 654 657 660 663 666 669 672 
675 678 681 684 687 690 693 696 699 
702 705 708 711 714 717 720 723 726 
[...]
CELL_DATA 708
SCALARS scalars double
LOOKUP_TABLE default
-5.2844645018 -9.1339881272 -5.1019130178 -8.6292012912 -5.3607439882 -8.4604922113 -7.632522007 -5.9962681933 -8.9653708595 
-5.119463803 -6.4787778916 -5.0943754236 -3.8914132185 -3.7176790872 2.627068174 2.7508645189 -0.59563540403 -0.47991131595 
2.6228787049 -0.60075345243 3.7801439829 5.3303101574 5.2226553928 5.1569208445 3.4893356445 6.6395881308 6.7152083076 
6.6422630878 6.6157217103 5.1936263383 2.0786919864 4.2385826399 1.9541497497 -1.5594127858 -1.0602712321 1.3834729778 
-1.0806601868 0.095339947028 1.2319937098 3.5193131242 4.9493003693 5.4954956478 4.71295586 7.6364942544 5.2160700236 
5.3144813166 7.351403907 7.7989718892 5.0905878275 2.8529379834 3.5144160066 2.8533140443 6.2720002027 4.4662761589 
7.9108078531 7.9860620167 4.5796016673 6.7376659543 7.3404387218 3.0429526815 2.9654994405 3.5960413633 4.8112293835 
2.7766662976 3.4640589255 3.7793069674 3.1271878971 5.9310322901 5.635508282 5.7234425079 0.56665852981 -1.0507281938 
0.23047801014 0.68324644681 -1.7064191693 -4.5890798141 -5.3551343207 -2.3329675221 -6.1801795071 -4.054313428 -5.9907779244 
-0.16770704345 -3.8133892416 -2.3621911228 -0.98508156567 -2.4457627953 0.90852069653 -0.010439905154 -0.879744223 0.31723813701 
-2.4500379943 -5.6734170974 -6.3729447971 -2.4267066353 -1.6596293209 -5.877445567 -3.501160094 0.15003428874 2.2052621989 
-1.5079312169 -1.8107380896 -2.1999028646 -2.881851744 -1.9597613022 -1.4413335325 -1.7488417357 0.6066973201 1.4323792115 
1.7630047918 0.98287206314 0.52153263108 1.7446598671 1.1054795232 0.80224560254 1.4853778197 -0.58096777221 -0.41652704419 
-0.47623377902 -3.0574382884 -0.54437480008 -3.5772130929 0.034341527405 -2.7247365979 -3.2884047127 1.654122728 -3.2178286325 
-6.1607460893 -2.7370169544 -5.523749223 -2.7749280953 -1.689193704 -0.26390987154 -0.17543095456 -1.4630827843 -0.38166452246 
1.8605946163 1.8648373306 -0.09468500815 1.4474413177 3.8074153 1.8801511719 2.0968754821 4.0641593025 5.5127996435 
5.6548767197 2.9420871423 3.0394885984 3.1079874795 1.9766389639 4.1888567927 4.0785594624 -0.34348766991 -0.0038330949581 
0.41630330889 -1.6707687156 -0.33559441648 0.37896195651 2.0434737183 4.1260209317 2.3234184561 2.7763205718 5.8220426732 
5.6817854625 5.96934044 6.0235913761 5.7663748817 1.6253246488 2.7979907079 3.6060834481 1.9803562677 6.7550089774 
0.78998898422 4.0958123778 5.0513535519 2.545906506 5.4851541733 5.0824305336 0.49827597196 2.6555599681 1.7881804641 
2.0783559336 1.4516269243 2.2103097565 2.5376963082 2.1698960292 3.1908792068 1.7479314801 2.2370687497 0.029746079433 
-1.4950066922 1.2665241557 1.42716392 -3.7183097634 -0.21651187023 -2.9096710111 -3.0140638658 -2.3273095571 -2.0466260861 
-3.2649903739 0.53508294098 -0.24344201755 -3.0671404752 -0.49421417973 -2.9449785043 1.4270009003 -1.2761377258 -0.055892287932 
-1.3279670575 -1.2362225063 -2.0314152546 -1.2120641578 -5.8042225936 -2.3472648237 -0.94192790216 -7.5868083911 -5.257160945 
-5.1207852005 -0.88480659663 -0.36826940684 -0.052505056073 -2.8045473768 -0.47972891659 -1.4901259204 -0.45200321592 -0.013143037538 
1.6499996953 0.50812779565 0.54523331173 0.6337299134 2.0819418357 0.18922127907 0.81234515707 1.0752768027 -1.3130921176 
-0.53149278283 -1.5285567033 -8.8933748115 -6.9568061646 -7.7395031232 -8.6545563392 -7.9021884758 -7.8240033659 -9.0718958244 
-7.3514400418 -4.4777133555 -7.2229733654 -7.4299060394 -4.3943461142 -7.7088891404 -7.7230395203 -5.5742797292 -9.1515625328 
-5.0350734759 -5.6368320539 -7.2469629064 -5.0260746782 -6.4353990304 -8.6953597129 -8.1808369494 -9.119553781 -8.6791083238 
-8.405472302 -7.5297790031 -7.4182437719 -7.3247347907 -4.6072648996 -9.0136875702 -8.310136892 -8.215132111 -5.2706647832 
-8.2871702227 -8.2841394414 -8.8998882918 -7.2691802356 -7.2158365813 -8.2654990577 -9.4219472055 -8.9159395687 -8.2908533672 
-8.9621264346 -8.4406804851 -8.2719086367 -6.9567398098 -8.4929166781 -8.4545602504 -8.36511591 -8.1571726673 -8.9865212158 
-8.6768709715 -8.4665612756 -5.9777526582 -9.171585397 -8.4073717817 -9.5909054013 -8.8823334443 -9.1472626697 -9.2862862157 
-9.9127381143 -9.5378772533 -9.514453811 -9.7460065992 -8.8729556844 -9.4482291799 -9.747876411 -9.4457689103 -9.2104850239 
-9.2018492582 -9.5483277083 -7.6007083851 -9.5869845064 -9.5062666222 -5.0473384103 -7.4480945304 -9.2528532396 -4.6494440964 
-6.4434490762 -7.5108721282 -9.4243101339 -7.2193408016 -9.2462025794 -8.1067842677 -8.7993046871 -8.9323328939 -9.1118484364 
-7.8931841305 -8.8542274981 -9.4059416448 -7.0834646592 -4.845888399 -5.9109974937 -5.1730505947 0.72496213748 -4.0806624308 
-8.4552583812 -2.4229597921 -7.959435842 -9.1054906937 -8.1995854082 -7.5284615902 -9.4804156126 -9.4927196151 -9.3913274278 
-9.6573114872 -8.9541684779 -9.9739820386 -9.687317725 -9.750645094 -9.9782774666 -9.3923371248 -9.783645543 -9.971103459 
-9.800491317 -9.6876337503 -9.9669101762 5.7005401257 4.4751327968 8.1896516356 7.8020275149 7.8679001455 7.886350377 
4.7170103787 7.2313320501 3.3109911149 8.3189031456 4.5628539324 8.3085844111 2.7146941315 3.1565634658 7.3314719553 
9.7684947114 8.6376929764 9.167842156 8.9197531788 7.9119473053 8.6312896832 9.7061655906 9.3082369291 8.9112737415 
9.0410410164 8.635995211 8.8699605219 7.6021144752 8.8026049158 7.25732099 9.7234653116 8.3394570224 8.1589971923 
6.9222535209 9.4434299248 9.4290089627 9.2129494426 9.0310780376 8.9904564011 9.2372817275 9.6088448926 9.7943879657 
7.9638283263 9.7765427204 8.161304015 8.4771954345 8.7666120092 8.6044702156 8.0825913799 7.9392591613 8.1968661185 
9.268916811 9.3974716527 9.422146157 8.9507057362 8.4685176119 8.3596396407 9.4303581175 9.1782812419 8.8314567057 
9.4737238656 9.9109404358 9.4340667208 9.6322165751 9.8252631112 9.2006455099 9.518710567 9.9274654427 9.4526968986 
9.1278034441 9.2041364435 9.9520333225 8.852453708 9.9392007146 9.9879688463 7.8457415541 6.1940732707 9.2094146423 
8.51751135 6.7238403285 7.796703693 9.7653400173 9.6816935375 9.1487785888 8.8614216934 8.9896414825 9.7825885432 
9.8081192053 7.3992126427 9.7762082007 8.749726785 7.5771314117 8.5954396973 7.878337181 9.0851561305 8.3206658254 
9.6566977424 4.1757397459 7.6290595597 7.5811114826 8.9723133309 8.7421391702 7.7779390952 9.9281942876 9.8373566827 
9.9817095124 9.6054598681 9.3349082546 9.8855967511 9.5581217008 9.7923625326 9.8749030065 9.8619402096 9.7726762428 
9.8654213794 9.7252128456 9.7221340989 9.6623796658 6.0343553352 6.8082311968 6.146176715 6.3856027833 6.464452747 
6.0271552832 2.3514467791 6.6423919937 7.3906705839 6.0062496866 5.4606599809 5.7993315236 6.7186048983 7.7460603402 
-0.23607750252 0.1242483354 0.84325419158 1.8641146505 -0.27492494387 -0.24182913104 -0.22791095092 -1.0807844688 -1.7784252085 
-4.6893746432 -2.1369603401 -4.3067227815 -4.9703124667 -5.1651935026 -5.3513981051 -3.2843708434 -2.721141886 -1.2466195436 
-3.5803996226 -0.084344378535 3.071989857 2.8912627029 -0.35897491395 2.0242591377 0.20782844401 0.59809752407 -2.1499361582 
-4.5186695368 -2.7238878784 -2.5774710575 -4.065269406 -6.2963675052 -3.7610745394 -5.7238338892 -5.5420890926 -4.3952943541 
-2.0234586787 -2.3171897486 -3.5420809801 -1.4280533484 -2.4849147682 -5.0881946432 -4.8003275156 -4.82540815 -4.436115678 
-5.706130549 -0.76293055225 -1.3471767072 -0.92940390485 -4.1774839306 -1.6857590639 0.22866244414 -0.75932509184 -2.6427994776 
-3.3708465943 -4.1951983066 -2.8519379579 -0.2643891758 2.4205379609 1.9700068254 1.2095739648 3.1185443647 5.7249626598 
2.4258043756 4.2406576641 6.6337431738 6.5715738814 5.9443113827 6.9523004036 1.8967426297 2.4530167656 3.035370367 
-0.87734612008 2.182957828 0.98228304122 2.0476425142 2.9106521387 6.3686278178 4.1289264802 6.124811064 3.0739619659 
5.8281222768 8.4567886282 7.5754743662 6.2111294204 2.9644853482 1.1667265265 1.2483621948 7.0882370807 2.3325394576 
2.0361606722 2.5102873267 0.95476062199 -1.7350817436 -0.39999519488 -1.0388526443 1.5249689773 -0.89582773137 -1.3532400556 
-1.244670531 0.6101416129 2.1250728096 1.2480603247 1.2681972047 4.3658065496 7.0316091109 4.9573411534 0.097777705455 
5.308189015 3.2834538906 5.7249707343 4.0505863474 8.4647852399 5.3159638598 6.7062463072 5.6200214421 3.444291036 
4.4965239209 1.0495838292 0.28223082397 1.4571734765 1.2607037878 -0.72118251993 -1.1807704382 -0.14112953938 -0.63650346719 
-3.1462554731 -4.0539735344 -3.1148330064 -5.0048554263 -4.4481045168 -2.1589773596 -1.9761333518 -1.3242656911 -1.9735089778 
-2.2531151836 -4.0205986975 -3.1003187491 2.6485277186 1.3469886188 0.40828202335 1.7094670331 -0.63544212894 0.78328011414 
-2.0841840769 -3.6783417916 -1.1909519598 -1.8539652034 -5.0524281705 -6.1093189274 -3.1122416162 -5.4940762595 -4.7560052494 
-4.1253234305 -0.98213487252 -2.9479984325 -3.3543414477 -0.54103716228 -3.4280932373 -3.6420993536 -4.4065257706 -3.3906959633 
-5.8715643319 -5.5072180349 -0.55856104467 -1.8941677582 -1.0312032712 -3.3377410536 -2.9391484136 -0.86826320294 -2.667987521 
-2.9804996824 -2.8062226313 -3.2614890183 -2.661542 0.2814239096 1.726495078 0.93149117704 0.94365153544 5.8206282254 
5.5626132316 3.6720480271 4.9830390099 3.6617081712 4.2353773124 -0.09495832551 3.3468587262 3.0583007324 0.75782941581 
2.2111604426 -1.3245582889 2.3263917764 0.79120806738 1.3757088905 1.0667644812 3.3922046386 4.7782940122 8.9822006029 
4.2462725939 4.5498567859 3.109575519 5.0662569913 2.1577316727 3.4183447397 1.4900973495 2.2449882006 6.3849726138 
-0.03835534241 2.6072644309 1.6355529593 1.4667965316 -0.97285625592 1.2341356597 1.1076495678 0.48557370944 -0.68494611613 
-0.40929719901 -0.71147789211 0.74228648939 1.9298959743 1.1141634458 1.4049215555 
