# vtk DataFile Version 5.1
vtk output
ASCII
DATASET POLYDATA
POINTS 254 float
-5.50921 -5.70474 -6.33177 -6.18084 -6.45074 10.2007 -6.61576 11.4386 -4.04887 
-7.33742 12.183 12.0101 11.0318 -6.24946 -6.43056 12.4939 -8.13349 11.4792 
10.1359 10.4153 -4.39883 12.8042 11.577 13.4624 -7.05651 -7.73743 -2.58362 
-8.85587 -8.49621 0.974498 -9.60598 -8.18268 4.21614 -8.58358 -8.11338 7.02997 
-7.85266 -2.59168 -7.57619 -8.45116 0.637842 -8.2208 -8.91321 4.4144 -7.11468 
-7.489 8.11807 -6.19459 -8.28294 12.588 0.159453 -9.30496 13.7326 3.36775 
-8.89044 13.4465 6.04157 -8.42094 12.9503 8.84891 -8.33148 -2.59299 11.3086 
-9.1638 1.46341 12.5323 -9.84332 6.0049 12.4929 -8.37334 9.13773 12.8218 
13.1188 -7.99448 -2.26434 14.305 -9.67684 1.48683 15.2035 -10.3716 5.63758 
13.8814 -9.05335 8.86914 12.0548 -2.48272 -7.96417 11.9529 0.744946 -9.51594 
11.9894 4.61276 -8.44004 11.2573 7.8068 -6.74067 11.8379 12.1717 -1.05101 
12.8166 13.9263 2.53305 13.4384 14.2686 6.08087 13.5115 12.8976 9.99268 
14.015 -4.25962 12.9247 14.3057 0.564729 14.1286 14.7342 5.29371 14.1812 
13.3908 9.44993 14.3314 -1.59442 -6.42543 -7.84322 1.83035 -7.7453 -7.99656 
5.14878 -7.64579 -8.16211 7.98296 -7.26395 -7.40087 -2.70356 -8.01594 11.3213 
1.53938 -9.83006 12.378 5.71308 -9.92759 12.6787 9.20842 -9.67863 12.7511 
-3.2469 12.1461 -5.96046 1.04859 13.0507 -6.57631 4.72844 12.6693 -7.59566 
7.74542 11.6572 -6.33113 -3.33419 12.5476 13.4136 1.03211 13.108 14.4905 
5.83514 12.7155 15.9288 9.89885 12.4296 15.0011 -12.3114 4.83672 -3.32372 
-12.485 5.3855 9.56978 -11.1738 11.125 7.17011 -11.2724 11.4136 1.62993 
-14.4552 5.68893 4.02849 -13.1586 -1.15552 -0.851513 -13.388 -0.746558 6.74176 
-11.676 2.77415 10.7786 -10.8925 7.61082 10.9843 -12.5503 8.40714 8.34459 
-10.0141 10.6111 10.0302 -10.8892 1.94305 -5.41754 -12.4194 7.91569 -0.499282 
-10.3964 7.15578 -4.33973 -9.69141 10.6467 -2.06556 -11.6786 11.2551 4.41819 
-13.6262 8.64828 2.87326 -13.9386 5.4337 0.642853 -13.4015 8.64704 5.64311 
-14.0421 5.4716 7.10803 -13.3377 2.22288 -2.65258 -11.6953 -1.17209 -5.09608 
-8.6643 -4.26542 -4.54885 -10.8918 -4.38884 -1.72145 -11.5437 -4.4549 1.87281 
-13.7094 2.33962 8.4255 -11.9576 -0.589387 9.20043 -12.0639 -3.86716 4.59341 
-11.556 -4.64616 6.43413 -9.74943 -4.52534 8.77773 -13.3848 -0.975343 3.05604 
-14.4739 2.56182 5.4524 -14.2723 2.36977 1.66967 14.7791 4.23372 -3.34034 
16.458 4.5031 10.8769 14.767 11.5271 7.8828 14.2614 11.0393 1.2262 
17.4885 5.0135 3.98021 16.2022 -2.3639 0.184101 17.1401 -2.82838 7.95461 
15.7729 1.27904 12.2167 15.188 7.56527 11.9317 16.1699 8.43755 9.28036 
14.4734 10.6895 11.2215 13.9975 1.88568 -5.62548 15.058 7.74574 -1.0281 
13.5384 6.99534 -4.64606 12.8839 9.46636 -2.47069 14.9549 11.6645 4.87687 
16.069 8.60628 2.57863 16.302 4.59067 0.275509 16.5339 8.57417 6.22754 
17.5711 5.06066 7.54187 16.0413 0.951671 -1.71792 14.484 -1.40306 -4.08997 
13.3463 -4.46015 -4.08175 15.0908 -5.07858 -0.352068 15.9588 -6.51695 2.70368 
17.3045 0.863308 9.33279 16.1432 -3.69559 11.0741 16.645 -6.03514 5.92473 
16.1259 -6.95962 8.72572 14.8622 -6.68319 10.5324 17.1877 -2.34762 3.82047 
17.6522 1.38549 5.53825 17.1682 0.897519 1.72768 1.48827 -10.5547 -3.03142 
0.979118 -12.4419 8.32372 -6.22712 -10.8257 4.96586 -5.19649 -10.7934 -0.581307 
0.757075 -14.1806 2.56519 7.96968 -12.4061 -0.536021 8.21851 -13.6092 6.32754 
4.62359 -12.4286 10.3827 -1.58175 -10.5502 9.52072 -2.41064 -12.0938 6.31261 
-4.95449 -9.43616 8.4044 3.83062 -9.87006 -4.98448 -1.70295 -11.5489 -1.80376 
-0.635724 -9.37811 -5.23931 -3.94809 -8.80948 -4.07081 -6.17688 -11.0092 2.5809 
-2.53706 -13.0107 0.891993 0.771467 -13.0917 -0.184394 -2.63609 -13.0702 3.68795 
0.938546 -14.1782 5.02425 4.29461 -12.1127 -2.10842 7.24344 -10.2599 -4.04683 
9.78899 -8.75719 -4.38737 10.7214 -10.5741 -1.3807 11.6501 -11.9654 2.18836 
4.96237 -14.0181 7.41803 8.64858 -12.6459 10.3809 11.3274 -12.2678 5.13282 
11.8766 -12.0599 8.03033 11.5348 -11.1072 10.9027 8.03273 -13.6588 2.84912 
4.77295 -14.4833 4.45662 4.50491 -13.3938 1.09327 1.54253 15.1112 -2.32607 
0.987302 14.7868 10.7012 -6.13945 15.3483 7.79354 -5.5027 14.7222 2.25607 
0.68265 16.2452 4.9899 7.4654 16.1614 0.834729 7.71201 16.2267 8.54423 
4.08749 14.0512 12.9692 -1.91523 13.8077 11.9701 -2.84664 15.2217 9.02356 
-5.68914 14.0635 10.6279 3.82054 14.4026 -4.35625 -1.98744 15.0028 0.264466 
-1.29649 13.7937 -3.51579 -4.72766 13.4178 -1.60114 -6.21773 15.3618 5.13749 
-2.2136 15.454 3.44147 1.04567 15.9383 1.62838 -2.67866 16.0611 6.44307 
0.539573 15.8808 7.68979 4.32718 16.0245 -0.932774 6.69009 14.9603 -3.11043 
9.37714 12.9928 -3.17844 10.4532 14.9796 -0.0125109 10.9351 15.3849 3.0195 
4.58912 15.772 9.8736 7.88768 15.0451 12.4183 10.8395 15.2969 6.10691 
11.1079 14.8872 9.27333 11.253 13.6588 12.5023 7.19188 16.6781 4.452 
4.05638 16.6345 6.27435 3.9903 16.7832 2.85469 -4.01108 0.851989 -11.1361 
9.04221 0.704936 -12.0067 6.19732 -4.98625 -10.8384 0.247965 -4.96529 -10.5451 
2.89475 0.626879 -13.4725 -0.898166 6.73368 -11.1135 6.47945 6.31617 -11.5712 
10.4963 3.56056 -10.7722 10.3026 -1.41495 -10.5351 7.57317 -1.84613 -12.293 
9.24561 -4.41936 -9.82028 -5.60083 3.34053 -9.65582 -1.66313 -2.03237 -11.9667 
-5.37895 -1.49166 -9.95908 -3.57804 -3.71605 -9.02374 3.28024 -5.11397 -10.7015 
1.58353 -2.48597 -12.7377 -0.356065 0.672409 -12.9885 4.37165 -2.36586 -13.039 
6.15251 0.85077 -13.2313 -2.54254 3.72433 -11.5036 -4.72545 6.47431 -9.35737 
-4.66835 9.48225 -7.03448 -1.88336 10.0459 -8.75952 1.3448 9.75787 -9.84395 
8.03707 3.57527 -12.282 9.83385 6.32766 -10.1394 4.69663 9.29411 -10.0851 
7.35008 9.26936 -9.34997 9.16712 8.91869 -7.73323 2.82122 6.50885 -11.7083 
4.70808 3.66586 -13.0428 0.976312 3.58898 -12.7235 -4.54686 1.57578 15.2805 
10.5615 0.983409 15.506 6.89887 -6.85465 14.4831 -0.15683 -5.90617 13.7439 
3.23089 0.735165 16.6892 -0.761292 7.02005 16.0784 7.53912 7.3874 16.9316 
12.7182 4.30409 15.5792 11.7474 -2.52977 14.3535 8.42773 -2.98936 15.6085 
10.3523 -6.41143 13.8806 -6.57056 4.79852 14.4642 -2.16956 -2.43101 14.7654 
-6.1275 -1.49488 13.4762 -4.34302 -4.85936 12.231 3.4096 -6.47312 14.5857 
1.66344 -2.72404 15.9069 -0.3122 1.19185 16.4683 5.13977 -3.18932 15.9435 
6.69295 0.790058 16.7529 -2.73122 4.7875 16.4133 -5.4282 7.85665 15.1943 
-5.71355 10.5287 14.4596 -1.80207 9.93661 15.0156 2.07686 10.1665 16.3395 
9.18271 4.54999 16.4589 12.1595 7.89307 16.2966 6.01339 9.6407 16.7045 
9.43528 10.6031 16.5615 11.6284 10.4062 14.95 3.42826 7.09012 17.2022 
5.12047 4.1317 17.3884 1.15019 4.22677 17.043 
POLYGONS 505 1512
OFFSETS vtktypeint64
0 3 6 9 12 15 18 21 24 
27 30 33 36 39 42 45 48 51 
54 57 60 63 66 69 72 75 78 
81 84 87 90 93 96 99 102 105 
108 111 114 117 120 123 126 129 132 
135 138 141 144 147 150 153 156 159 
162 165 168 171 174 177 180 183 186 
189 192 195 198 201 204 207 210 213 
216 219 222 225 228 231 234 237 240 
243 246 249 252 255 258 261 264 267 
270 273 276 279 282 285 288 291 294 
297 300 303 306 309 312 315 318 321 
324 327 330 333 336 339 342 345 348 
351 354 357 360 363 366 369 372 375 
378 381 384 387 390 393 396 399 402 
405 408 411 414 417 420 423 426 429 
432 435 438 441 444 447 450 453 456 
459 462 465 468 471 474 477 480 483 
486 489 492 495 498 501 504 507 510 
513 516 519 522 525 528 531 534 537 
540 543 546 549 552 555 558 561 564 
567 570 573 576 579 582 585 588 591 
594 597 600 603 606 609 612 615 618 
621 624 627 630 633 636 639 642 645 
648 651 654 657 660 663 666 669 672 
675 678 681 684 687 690 693 696 699 
702 705 708 711 714 717 720 723 726 
729 732 735 738 741 744 747 750 753 
756 759 762 765 768 771 774 777 780 
783 786 789 792 795 798 801 804 807 
810 813 816 819 822 825 828 831 834 
837 840 843 846 849 852 855 858 861 
864 867 870 873 876 879 882 885 888 
891 894 897 900 903 906 909 912 915 
918 921 924 927 930 933 936 939 942 
945 948 951 954 957 960 963 966 969 
972 975 978 981 984 987 990 993 996 
999 1002 1005 1008 1011 1014 1017 1020 1023 
1026 1029 1032 1035 1038 1041 1044 1047 1050 
1053 1056 1059 1062 1065 1068 1071 1074 1077 
1080 1083 1086 1089 1092 1095 1098 1101 1104 
1107 1110 1113 1116 1119 1122 1125 1128 1131 
1134 1137 1140 1143 1146 1149 1152 1155 1158 
1161 1164 1167 1170 1173 1176 1179 1182 1185 
1188 1191 1194 1197 1200 1203 1206 1209 1212 
1215 1218 1221 1224 1227 1230 1233 1236 1239 
1242 1245 1248 1251 1254 1257 1260 1263 1266 
1269 1272 1275 1278 1281 1284 1287 1290 1293 
1296 1299 1302 1305 1308 1311 1314 1317 1320 
1323 1326 1329 1332 1335 1338 1341 1344 1347 
1350 1353 1356 1359 1362 1365 1368 1371 1374 
1377 1380 1383 1386 1389 1392 1395 1398 1401 
1404 1407 1410 1413 1416 1419 1422 1425 1428 
1431 1434 1437 1440 1443 1446 1449 1452 1455 
1458 1461 1464 1467 1470 1473 1476 1479 1482 
1485 1488 1491 1494 1497 1500 1503 1506 1509 
1512 
CONNECTIVITY vtktypeint64
20 21 82 22 63 21 65 57 64 
58 65 66 64 66 65 23 3 66 
19 18 58 3 19 66 66 19 58 
22 23 64 64 23 66 63 22 57 
57 22 64 67 13 77 14 13 67 
69 56 68 70 68 59 69 70 15 
68 70 69 16 2 70 70 59 16 
17 16 59 2 15 70 15 14 69 
56 14 67 69 14 56 71 17 59 
58 18 71 71 18 17 72 59 68 
73 68 56 60 72 73 68 73 72 
65 58 74 75 74 60 57 65 75 
74 75 65 72 60 74 71 74 58 
59 72 71 74 71 72 76 56 67 
61 76 77 67 77 76 13 12 77 
12 0 78 80 61 79 79 9 80 
8 78 0 9 79 8 78 8 79 
77 79 61 78 77 12 79 77 78 
63 57 81 82 81 62 63 82 21 
81 82 63 84 62 83 10 84 83 
80 10 83 84 10 11 1 20 85 
85 20 82 11 85 84 85 11 1 
62 84 82 85 82 84 10 80 9 
86 83 62 61 80 86 83 86 80 
87 62 81 75 81 57 60 87 75 
81 75 87 76 61 88 73 88 60 
56 76 73 88 73 76 87 60 88 
86 88 61 62 87 86 88 86 87 
36 115 37 38 37 96 98 97 90 
91 99 98 97 98 99 39 99 7 
35 91 34 7 99 35 99 91 35 
38 97 39 97 99 39 96 90 38 
90 97 38 100 110 29 30 100 29 
102 101 89 103 92 101 102 31 103 
101 102 103 32 103 6 103 32 92 
33 92 32 6 103 31 31 102 30 
89 100 30 102 89 30 104 92 33 
91 104 34 104 33 34 105 101 92 
106 89 101 93 106 105 101 105 106 
98 107 91 108 93 107 90 108 98 
107 98 108 105 107 93 104 91 107 
92 104 105 107 105 104 109 100 89 
94 110 109 100 109 110 29 110 28 
28 111 4 113 112 94 112 113 25 
24 4 111 25 24 112 111 112 24 
110 94 112 111 28 110 112 111 110 
96 114 90 115 95 114 96 37 115 
114 96 115 117 116 95 26 116 117 
113 116 26 117 27 26 5 118 36 
118 115 36 27 117 118 118 5 27 
95 115 117 118 117 115 26 25 113 
119 95 116 94 119 113 116 113 119 
120 114 95 108 90 114 93 108 120 
114 120 108 109 121 94 106 93 121 
89 106 109 121 109 106 120 121 93 
119 94 121 95 119 120 121 120 119 
47 46 148 45 129 46 131 123 130 
124 131 132 130 132 131 44 1 132 
11 10 124 1 11 132 132 11 124 
45 44 130 130 44 132 129 45 123 
123 45 130 133 42 143 41 42 133 
135 122 134 136 134 125 135 136 40 
134 136 135 8 0 136 136 125 8 
9 8 125 0 40 136 40 41 135 
122 41 133 135 41 122 137 9 125 
124 10 137 137 10 9 138 125 134 
139 134 122 126 138 139 134 139 138 
131 124 140 141 140 126 123 131 141 
140 141 131 138 126 140 137 140 124 
125 138 137 140 137 138 142 122 133 
127 142 143 133 143 142 42 43 143 
43 4 144 146 127 145 145 25 146 
24 144 4 25 145 24 144 24 145 
143 145 127 144 143 43 145 143 144 
129 123 147 148 147 128 129 148 46 
147 148 129 150 128 149 26 150 149 
146 26 149 150 26 27 5 47 151 
151 47 148 151 27 5 27 151 150 
128 150 148 151 148 150 26 146 25 
152 149 128 127 146 152 149 152 146 
153 128 147 141 147 123 126 153 141 
147 141 153 142 127 154 139 154 126 
122 142 139 154 139 142 153 126 154 
152 154 127 128 153 152 154 152 153 
55 181 54 53 54 162 164 163 156 
157 165 164 163 164 165 52 165 3 
19 157 18 3 165 19 165 157 19 
53 163 52 163 165 52 162 156 53 
156 163 53 166 176 50 49 166 50 
168 167 155 169 158 167 168 48 169 
167 168 169 16 169 2 169 16 158 
17 158 16 2 169 48 48 168 49 
155 166 49 168 155 49 170 158 17 
157 170 18 170 17 18 171 167 158 
172 155 167 159 172 171 167 171 172 
164 173 157 174 159 173 156 174 164 
173 164 174 171 173 159 170 157 173 
158 170 171 173 171 170 175 166 155 
160 176 175 166 175 176 50 176 51 
51 177 6 179 178 160 178 179 33 
32 6 177 33 32 178 177 178 32 
176 160 178 177 51 176 178 177 176 
162 180 156 181 161 180 162 54 181 
180 162 181 183 182 161 34 182 183 
179 182 34 183 35 34 7 184 55 
184 181 55 184 7 35 35 183 184 
161 181 183 184 183 181 34 33 179 
185 161 182 160 185 179 182 179 185 
186 180 161 174 156 180 159 174 186 
180 186 174 175 187 160 172 159 187 
155 172 175 187 175 172 186 187 159 
185 160 187 161 185 186 187 186 185 
31 30 214 29 195 30 197 189 196 
190 197 198 196 198 197 28 4 198 
43 42 190 4 43 198 198 43 190 
29 28 196 196 28 198 195 29 189 
189 29 196 199 14 209 13 14 199 
201 188 200 202 200 191 201 202 12 
200 202 201 40 0 202 202 191 40 
41 40 191 0 12 202 12 13 201 
188 13 199 201 13 188 203 41 191 
190 42 203 203 42 41 204 191 200 
205 200 188 192 204 205 200 205 204 
197 190 206 207 206 192 189 197 207 
206 207 197 204 192 206 203 206 190 
191 204 203 206 203 204 208 188 199 
193 208 209 199 209 208 14 15 209 
15 2 210 212 193 211 211 49 212 
48 210 2 49 211 48 210 48 211 
209 211 193 210 209 15 211 209 210 
195 189 213 214 213 194 195 214 30 
213 214 195 216 194 215 50 216 215 
212 50 215 216 50 51 6 31 217 
217 31 214 217 51 6 51 217 216 
194 216 214 217 214 216 50 212 49 
218 215 194 193 212 218 215 218 212 
219 194 213 207 213 189 192 219 207 
213 207 219 208 193 220 205 220 192 
188 208 205 220 205 208 219 192 220 
218 220 193 194 219 218 220 218 219 
39 247 38 37 38 228 230 229 222 
223 231 230 229 230 231 36 231 5 
47 223 46 5 231 47 231 223 47 
37 229 36 229 231 36 228 222 37 
222 229 37 232 242 22 21 232 22 
234 233 221 235 224 233 234 20 235 
233 234 235 44 235 1 235 44 224 
45 224 44 1 235 20 20 234 21 
221 232 21 234 221 21 236 224 45 
223 236 46 236 45 46 237 233 224 
238 221 233 225 238 237 233 237 238 
230 239 223 240 225 239 222 240 230 
239 230 240 237 239 225 236 223 239 
224 236 237 239 237 236 241 232 221 
226 242 241 232 241 242 22 242 23 
23 243 3 245 244 226 244 245 53 
52 3 243 53 52 244 243 244 52 
242 226 244 243 23 242 244 243 242 
228 246 222 247 227 246 228 38 247 
246 228 247 249 248 227 54 248 249 
245 248 54 249 55 54 7 250 39 
250 247 39 250 7 55 55 249 250 
227 247 249 250 249 247 54 53 245 
251 227 248 226 251 245 248 245 251 
252 246 227 240 222 246 225 240 252 
246 252 240 241 253 226 238 225 253 
221 238 241 253 241 238 252 253 225 
251 226 253 227 251 252 253 252 251 

CELL_DATA 504
SCALARS scalars double
LOOKUP_TABLE default
-3.4111289568 -0.82734869982 2.1177014607 5.4544975873 3.9266340861 3.9601408851 7.3731770091 6.4429311537 6.4433995824 
2.3590618013 3.9514937069 0.73915937853 1.2222893498 1.1643478212 1.1094014123 4.1955072657 5.053451076 5.2508495818 
4.6450887093 7.9229135568 7.8585803901 7.4938552303 5.5091169023 3.999459329 1.2507210609 2.8778607774 6.7484760463 
7.3020646602 7.1931376309 4.9107020522 3.3733864604 2.0671055328 3.4823118351 5.3050809805 2.6008264474 1.9665918824 
3.2350710807 2.9682808093 5.9791457673 6.2579283187 5.7155698968 1.1876459527 -2.1807946311 1.2207932417 -2.6178375915 
-6.3838443473 -5.3741593931 -5.213666403 -5.8747027785 -6.1713329451 -5.8307243883 -4.9920779557 -6.464750805 -6.541765053 
0.63244316533 -3.4940693396 -2.8033919171 -2.4986138346 -4.2858842706 -4.9662153107 -4.9001085772 -5.9441895456 -4.9601163963 
-4.1824587589 -4.8784741085 -5.0383573287 -4.0389766866 -4.50420301 -5.2582836819 -4.046417428 -4.5942823597 -4.4663193467 
-2.226403008 1.3548953278 0.68456360854 0.019407721456 -1.5966968994 0.55577119981 2.4441652997 0.35178146538 -0.17863560645 
-2.7283712888 -3.0540719259 -2.7075188856 -2.1705409502 -0.79489847883 2.2855476236 4.7729585241 2.9148156072 4.01244662 
5.1590789146 5.3347225643 4.8123020501 2.6208792789 2.9158909188 0.034540295235 2.2662356239 -0.76449546558 1.2833566278 
2.0254303449 5.0312962941 5.922418655 5.5737209914 5.4114738646 5.2477195819 5.5514755654 6.7184572742 4.5860012712 
1.620063198 1.7181507533 5.2021990456 4.7512650652 5.5939280689 4.3318565056 1.9003474769 2.371850762 2.3330752378 
4.5666596113 2.740933835 2.0538759822 3.2401325095 3.2525118577 4.7999123252 4.8790550408 4.1306458096 1.2733910995 
-1.8733377548 -0.9459492792 -2.032725501 -4.0385313678 -2.8409474989 -3.0451833383 -3.2228408451 -3.106481658 -2.8325251793 
-2.7465588518 -3.142577855 -3.1348306814 0.068236687461 -1.4154538591 -0.75442834646 -0.4325401999 -2.1799654186 -3.1884879629 
-3.0236684253 -6.1699621556 -4.7364332018 -3.9841265207 -6.1032639132 -6.1356422873 -1.8616029799 -4.0967736496 -3.6935363597 
-1.4889850268 -2.0995581559 -2.3691328153 -0.74434789006 0.79969207414 0.34938213369 -0.25825546935 -1.3213927318 0.98167692968 
1.522608602 1.0085841589 -0.088694476305 -1.6034548964 -1.22220583 -0.6946733329 -6.2714511184 -6.5806888503 -7.9816611052 
-7.7477874904 -7.7374622406 -5.8867100105 -7.3583700183 -5.8880687875 -7.5479664953 -6.4157815301 -6.4175254941 -7.8080740404 
-7.7606619642 -8.2901960066 -8.1842848828 -8.5269504264 -7.5156263872 -6.8135311975 -7.4774555483 -6.6008292738 -6.6653750907 
-6.6015404617 -6.6140958051 -6.8412820251 -8.539085265 -8.7082281606 -7.7523431989 -7.8169078675 -7.5033294788 -7.7289368146 
-7.4310922828 -9.2016349627 -8.3808790574 -8.4540621274 -9.524063891 -8.2844088449 -8.4975852359 -9.4680999101 -8.5537433878 
-8.0603204652 -8.6853858602 -7.8307606938 -8.2603173169 -7.7954144357 -7.4748738147 -6.8929307958 -8.0907934942 -7.3831331382 
-6.8263479766 -6.7973655782 -6.601049981 -7.6737427707 -7.3450010639 -7.4311915683 -8.6611887951 -9.5950898721 -6.6736181903 
-8.8258267127 -9.1934162246 -8.9711788197 -8.9519750559 -5.7275745774 -3.1103564738 -6.3421320437 -3.5154608037 -5.8554540246 
-9.3273144965 -8.5618731615 -7.6461895711 -9.192515344 -8.7644351375 -9.0796019514 -9.7509440532 -8.5866380206 -9.9690494996 
-9.8584285935 -9.2296109573 -9.2864452903 -7.1337324678 -9.2592413563 -9.4679029797 -9.3227736129 -9.6938248078 -9.4589712015 
7.6094039728 8.9659993316 8.8453901068 8.9609426836 8.8380045671 7.179839991 7.2233746221 7.5112072155 7.1644635614 
8.339935896 8.1191839027 9.1102619301 9.0602659717 8.8478206898 8.7593572731 8.9975948737 8.9314605539 8.8469723249 
8.9581920832 8.4001288151 8.5094353093 8.4616416732 8.3957062096 8.8314849624 8.9989817025 8.8376700874 9.0595321009 
8.160360301 8.2734631069 9.7516158573 9.5509731215 9.7218518006 9.6162360622 9.4959481225 9.9098022522 9.367243641 
9.501859909 9.6482357285 9.8020998718 9.6142919618 9.7034863323 9.0516812767 9.4015604329 9.0303786619 6.8990490713 
4.6553518681 9.3150328962 7.9882542196 4.7099991913 5.2343660652 5.2408541678 9.0653716179 6.8442220172 6.6527582307 
8.7528380614 9.5620699818 8.625881817 8.7341140173 9.3289261665 9.2589533231 9.2906423746 7.8041357932 6.4054512103 
7.7769882737 6.5898055352 7.797588335 9.149952709 8.7922798032 7.9944717631 9.4240353056 9.5167980715 9.4003603722 
9.7034944352 9.1810431114 9.7931919496 9.6316209988 9.7956483224 9.6654237626 9.5361938589 9.5961799302 9.9025156418 
9.8611502197 9.9352614735 9.990025597 4.382812186 1.5411279612 -2.2811729154 -5.166991125 -3.7045626073 -4.2657178489 
-7.3385080165 -6.8907937405 -6.9227875572 -2.7316157097 -3.8728916486 -0.026209936161 -1.3819027632 2.2898540641 1.6739305169 
-1.4828463808 -6.1099122014 -6.0836740849 -6.2636065602 -5.900838083 -6.1454336192 -7.3226473378 -5.8121031722 -2.6221574074 
1.4029201528 -1.0209608636 -6.9569535444 -7.0891554961 -7.1307113666 -5.5484008615 -1.1470714878 -1.6797603403 -2.313141594 
-5.0018965916 -1.0385174279 -1.1739034972 -1.9651809586 -1.8960482177 -6.4615749898 -6.3911967924 -6.3388370603 1.6156990108 
3.3478353784 2.2470086828 3.9903371933 5.6247019503 5.1713828149 6.8533229331 5.3954002124 7.1468597014 5.430488096 
4.5010516708 5.4498359178 5.2753440086 1.0112819565 4.1866038153 3.1364764143 3.0500760936 5.4102664558 5.7727386284 
5.9326278153 6.6249605272 6.6859655706 6.2935502954 5.8280023968 5.8886111161 4.9980907703 6.2910631425 6.9320286329 
4.7329338646 4.550910532 5.000357023 3.5886283245 0.49074839126 1.0064802442 1.7899446792 2.8411272404 1.5433189254 
1.1369283788 2.2608598788 1.9052798324 3.9378837457 4.5511018662 3.7559130029 2.1648920488 -0.62362570684 -1.7477657661 
-3.4727247473 -2.4292638443 -4.6444948036 -5.1159189194 -4.3364145779 -3.8343183025 -2.4562456066 -2.4424075017 -2.2444849152 
-1.9643105646 -0.10334253839 -0.72614813294 -3.2684323049 -4.6452372102 -5.1211568179 -4.8942107104 -4.5581222323 -4.3968590783 
-4.4895580229 -4.6653213549 -3.4235625791 -1.0157976934 -2.3834525198 -4.1887796685 -4.977970779 -5.1908574856 -4.1996131859 
-2.854792436 -1.8313435822 -2.7920886763 -3.194459252 -1.936846302 -1.422952093 -2.4015739964 -2.0417548876 -3.7583420039 
-4.2993625169 -3.5550420729 -0.58407717264 2.617404508 -0.43700954784 1.8205117195 3.9224909022 2.1846905427 4.2232887965 
6.8986575164 3.8512013972 5.0234949039 2.9988254131 1.5881393696 2.5407955239 -1.6855243782 -0.80677060735 -0.68624997957 
-1.5654694162 1.0777310739 2.4300444941 2.4106619506 6.0141496783 4.421356292 4.871903444 4.2390920892 4.5537724903 
0.36042925317 4.8233861438 4.6212043751 1.3702108076 1.5392819994 2.4634542193 -0.31291957785 -1.3168950548 -1.9358840129 
-0.76329556516 2.498390473 -1.4785951379 -1.7431684354 -1.0182062618 -1.5292474357 1.5257894327 0.95985434225 0.13322691329 

