# vtk DataFile Version 5.1
vtk output
ASCII
DATASET POLYDATA
POINTS 254 float
-5.97269 -6.5541 -7.11982 -7.17681 -7.64698 10.1726 -7.48055 10.8677 -4.6543 
-7.41972 11.2823 11.425 10.6064 -6.6084 -7.00612 12.571 -8.49872 11.9022 
11.2279 10.6189 -5.31125 12.9095 11.009 13.5887 -8.2829 -8.37025 -3.05792 
-9.90433 -9.38173 0.625466 -10.968 -9.78644 3.89754 -9.42825 -8.93251 7.03013 
-8.26272 -3.13549 -8.09364 -9.76912 1.15228 -8.81182 -9.73063 4.72296 -8.30735 
-8.62739 8.19792 -6.76276 -9.01966 12.1976 -0.263405 -10.0341 13.1233 2.90118 
-10.2142 13.6705 6.22502 -9.48626 13.1108 8.26021 -9.248 -3.57667 11.1071 
-10.2895 0.92462 12.3081 -10.5918 4.68095 12.1948 -9.22766 8.29981 12.1091 
12.6657 -8.75743 -2.58449 13.4034 -10.0807 1.56677 14.0874 -11.0831 5.67332 
13.7336 -10.0044 8.88403 11.6792 -3.15857 -7.99256 11.8465 0.379535 -9.82285 
12.3523 3.92798 -9.029 11.4204 7.35894 -7.72841 12.7218 11.7238 -1.03702 
13.0737 13.0006 2.67832 13.7598 13.1355 6.09623 13.4263 12.2621 9.87087 
14.1441 -4.84607 13.6524 14.9751 0.165581 15.1321 15.5198 5.45763 15.1624 
14.3002 8.68224 14.6772 -2.45703 -7.52918 -8.55012 1.48639 -8.80539 -9.43163 
4.41246 -8.44632 -9.35724 7.59251 -8.16953 -8.25029 -3.23565 -8.97464 11.7517 
1.09009 -10.4347 12.4213 5.11703 -10.507 12.6713 8.41615 -10.3765 12.341 
-3.81794 11.3826 -6.39329 0.0363952 12.0686 -7.43988 3.95835 11.6431 -8.15636 
7.5061 11.3683 -7.06973 -3.39847 12.0554 13.1658 1.42293 12.467 14.4397 
5.96181 12.37 15.8515 9.40724 11.9896 14.9763 -12.8811 4.57327 -3.91808 
-13.8375 5.51233 9.59445 -12.5342 11.8099 7.21786 -11.9332 11.0053 1.21126 
-15.609 5.70552 3.57696 -14.692 -1.76137 -1.2957 -14.5287 -0.861486 6.39198 
-12.8728 2.52228 10.4348 -12.1993 7.46425 10.5608 -13.8465 8.66796 8.09324 
-11.165 10.2249 9.7794 -11.6315 1.98298 -6.08251 -13.19 7.84564 -1.06413 
-11.391 7.05579 -4.88575 -10.4651 9.97274 -2.69249 -12.6907 11.9956 4.23757 
-14.2488 8.9235 2.56035 -14.7471 5.44848 0.189043 -14.4451 9.37593 5.75719 
-15.0682 5.7214 6.82887 -14.0371 2.09702 -2.54919 -12.5491 -1.08843 -5.03541 
-9.49884 -5.02945 -5.24296 -11.7049 -5.17668 -2.08381 -13.1094 -5.46552 0.782289 
-14.6157 2.31929 8.06993 -12.787 -1.1629 9.88274 -13.686 -4.54969 4.14594 
-12.411 -5.23808 7.07032 -10.4945 -5.2411 9.34995 -15.1564 -1.2588 2.70572 
-15.5094 2.51334 4.86289 -15.9227 2.38473 1.33257 14.5736 3.94863 -3.30687 
17.1325 4.89405 11.3883 15.3298 11.4898 8.02834 14.4908 10.475 0.852907 
16.8786 4.69376 4.67309 16.243 -2.09577 -0.0447297 17.2739 -2.69791 7.78004 
16.3242 1.44461 12.3628 16.2761 7.80624 12.9054 17.0169 8.43219 9.60952 
15.2111 10.3644 11.6807 13.9639 0.991123 -6.25205 14.9202 7.42794 -0.874641 
13.4145 6.45827 -4.7138 13.1557 9.22249 -3.00679 15.0532 11.3964 4.7439 
16.0899 8.1602 2.86268 15.9485 4.09389 0.881263 16.8984 8.4154 6.59821 
17.5444 4.75629 8.16608 15.5735 0.550327 -1.72825 14.7301 -2.33024 -4.88358 
13.4846 -5.02201 -4.86893 14.7307 -5.13253 -1.07666 15.4258 -6.36366 2.96972 
17.4142 1.27107 9.67937 16.1656 -3.0431 11.2717 15.9576 -6.20221 5.71677 
15.4802 -7.02732 8.65077 14.7933 -6.70089 10.7998 17.0144 -2.38099 3.65479 
17.8009 1.04947 5.96689 17.0356 0.924066 2.0855 1.34876 -12.7046 -4.13952 
1.04777 -13.4445 8.65225 -6.70927 -11.5494 5.14733 -5.93392 -11.6512 -0.769085 
0.917734 -15.1122 2.53834 7.81321 -13.4987 -0.781406 7.54838 -14.3073 5.75983 
4.18429 -13.0283 10.1215 -1.75977 -11.383 9.69928 -2.58674 -12.8712 6.48141 
-5.78703 -10.2376 8.06308 3.89492 -11.2527 -5.85636 -2.15529 -12.6271 -2.01269 
-1.00574 -10.478 -5.79578 -4.41666 -9.78497 -4.57297 -6.83108 -12.487 2.42714 
-2.80167 -13.8405 1.15462 0.987421 -14.3126 -0.364781 -2.81572 -13.9161 3.95827 
0.944204 -15.0715 5.50663 4.3351 -13.5891 -2.41877 7.25464 -11.5312 -4.77245 
9.61215 -9.67092 -4.88498 10.4032 -11.6504 -1.41494 10.753 -12.2374 2.00182 
4.39035 -14.5748 7.21812 7.71187 -13.4553 9.31138 10.5472 -12.9652 4.72341 
11.0359 -12.8662 7.1623 10.5667 -11.3387 10.155 7.84063 -14.2234 2.41063 
4.65694 -15.0748 4.13259 4.6 -14.8157 0.771648 1.12363 14.1656 -2.93924 
1.14182 13.7871 10.7148 -6.77381 14.3185 7.85244 -6.34454 13.3587 1.83452 
0.64421 14.9997 4.91374 7.51519 15.0711 0.942049 7.39291 14.0304 8.51498 
4.65839 13.1591 12.8064 -1.94266 13.7248 12.0915 -2.67582 14.5833 8.81006 
-5.67487 13.9114 10.3673 3.04762 13.1552 -5.24223 -2.56811 13.4951 0.104813 
-2.03039 12.9589 -3.80188 -5.49201 12.3407 -2.08896 -6.78021 14.0297 5.14292 
-2.83821 14.3755 3.66202 0.863231 14.7015 1.29633 -3.19417 14.3078 6.62434 
0.67455 15.0511 8.22107 4.04363 14.9233 -1.07789 6.32075 13.5957 -3.51623 
9.74294 12.8369 -3.50204 10.2509 14.1171 0.117212 10.9803 14.7857 3.236 
4.58482 13.8874 10.198 7.89313 12.706 12.4817 10.1951 14.5403 6.39441 
10.6775 13.2339 9.1328 10.7831 12.4775 12.3311 7.59291 15.4652 4.87024 
3.99535 15.2964 6.57834 4.27307 15.1801 2.9566 -4.32803 1.10082 -12.15 
8.35438 0.920426 -12.4934 5.52307 -5.61046 -11.6178 -0.322011 -5.69344 -11.7977 
2.8587 0.749839 -14.2777 -1.42988 6.81562 -12.6328 5.52864 5.95053 -13.1826 
9.62395 3.10623 -11.4614 9.2887 -1.74267 -10.6016 6.57498 -2.09977 -13.0355 
8.42916 -5.08343 -9.80783 -6.21669 3.45339 -10.8143 -1.86734 -2.25071 -12.3164 
-5.58335 -1.63604 -10.5928 -4.01949 -4.9139 -10.1913 2.66013 -6.07809 -12.0574 
1.32629 -2.60223 -13.4421 -0.500559 0.751406 -13.7386 4.17407 -2.36189 -13.5755 
5.67755 0.891257 -13.7268 -2.63338 3.71928 -12.7541 -5.42872 6.8585 -10.6659 
-5.29789 9.42324 -7.99944 -2.26281 9.54146 -9.79741 0.521744 9.18582 -10.8949 
7.02456 3.28061 -13.3446 9.03858 5.92144 -11.5621 3.83822 8.38654 -11.3944 
6.80746 8.87541 -10.1473 9.29327 8.86422 -8.66543 1.94537 6.31682 -13.4983 
4.22392 3.18878 -14.1439 0.828485 3.59746 -14.0062 -5.2238 0.741412 14.7526 
10.8902 0.207 16.4686 6.87488 -7.49527 14.5647 -0.688151 -6.85046 14.1655 
3.43515 0.196137 17.1107 -0.524336 7.12057 16.6492 8.01057 7.05299 17.5913 
12.9696 3.6662 16.2209 12.0231 -3.0617 14.9736 8.60247 -3.51203 16.0044 
10.5245 -6.86874 14.2314 -7.16301 3.80562 14.0728 -2.5175 -3.07431 14.9747 
-6.71585 -2.03527 13.2492 -4.96576 -5.98577 12.3667 3.1038 -7.21448 14.6015 
1.35233 -3.60146 15.8379 -0.809486 0.427787 16.57 5.01222 -4.02101 16.1919 
7.27591 0.150634 17.2404 -3.02056 4.00551 15.9475 -5.59785 6.77093 14.4231 
-5.56831 9.36136 13.5734 -1.51503 9.69147 15.2353 2.52191 10.4474 16.726 
9.74052 4.12551 17.2882 11.9489 7.12685 16.8418 5.85681 9.65262 16.7794 
8.93398 10.2915 16.6764 11.7676 10.1038 15.5483 3.77747 6.85218 17.7467 
5.70405 3.85881 17.7 1.35 3.74209 17.5261 
POLYGONS 505 1512
OFFSETS vtktypeint64
0 3 6 9 12 15 18 21 24 
27 30 33 36 39 42 45 48 51 
54 57 60 63 66 69 72 75 78 
81 84 87 90 93 96 99 102 105 
108 111 114 117 120 123 126 129 132 
135 138 141 144 147 150 153 156 159 
162 165 168 171 174 177 180 183 186 
189 192 195 198 201 204 207 210 213 
216 219 222 225 228 231 234 237 240 
243 246 249 252 255 258 261 264 267 
270 273 276 279 282 285 288 291 294 
297 300 303 306 309 312 315 318 321 
324 327 330 333 336 339 342 345 348 
351 354 357 360 363 366 369 372 375 
378 381 384 387 390 393 396 399 402 
405 408 411 414 417 420 423 426 429 
432 435 438 441 444 447 450 453 456 
459 462 465 468 471 474 477 480 483 
486 489 492 495 498 501 504 507 510 
513 516 519 522 525 528 531 534 537 
540 543 546 549 552 555 558 561 564 
567 570 573 576 579 582 585 588 591 
594 597 600 603 606 609 612 615 618 
621 624 627 630 633 636 639 642 645 
648 651 654 657 660 663 666 669 672 
675 678 681 684 687 690 693 696 699 
702 705 708 711 714 717 720 723 726 
729 732 735 738 741 744 747 750 753 
756 759 762 765 768 771 774 777 780 
783 786 789 792 795 798 801 804 807 
810 813 816 819 822 825 828 831 834 
837 840 843 846 849 852 855 858 861 
864 867 870 873 876 879 882 885 888 
891 894 897 900 903 906 909 912 915 
918 921 924 927 930 933 936 939 942 
945 948 951 954 957 960 963 966 969 
972 975 978 981 984 987 990 993 996 
999 1002 1005 1008 1011 1014 1017 1020 1023 
1026 1029 1032 1035 1038 1041 1044 1047 1050 
1053 1056 1059 1062 1065 1068 1071 1074 1077 
1080 1083 1086 1089 1092 1095 1098 1101 1104 
1107 1110 1113 1116 1119 1122 1125 1128 1131 
1134 1137 1140 1143 1146 1149 1152 1155 1158 
1161 1164 1167 1170 1173 1176 1179 1182 1185 
1188 1191 1194 1197 1200 1203 1206 1209 1212 
1215 1218 1221 1224 1227 1230 1233 1236 1239 
1242 1245 1248 1251 1254 1257 1260 1263 1266 
1269 1272 1275 1278 1281 1284 1287 1290 1293 
1296 1299 1302 1305 1308 1311 1314 1317 1320 
1323 1326 1329 1332 1335 1338 1341 1344 1347 
1350 1353 1356 1359 1362 1365 1368 1371 1374 
1377 1380 1383 1386 1389 1392 1395 1398 1401 
1404 1407 1410 1413 1416 1419 1422 1425 1428 
1431 1434 1437 1440 1443 1446 1449 1452 1455 
1458 1461 1464 1467 1470 1473 1476 1479 1482 
1485 1488 1491 1494 1497 1500 1503 1506 1509 
1512 
CONNECTIVITY vtktypeint64
20 21 82 22 63 21 65 57 64 
58 65 66 64 66 65 23 3 66 
19 18 58 3 19 66 66 19 58 
22 23 64 64 23 66 63 22 57 
57 22 64 67 13 77 14 13 67 
69 56 68 70 68 59 69 70 15 
68 70 69 16 2 70 70 59 16 
17 16 59 2 15 70 15 14 69 
56 14 67 69 14 56 71 17 59 
58 18 71 71 18 17 72 59 68 
73 68 56 60 72 73 68 73 72 
65 58 74 75 74 60 57 65 75 
74 75 65 72 60 74 71 74 58 
59 72 71 74 71 72 76 56 67 
61 76 77 67 77 76 13 12 77 
12 0 78 80 61 79 79 9 80 
8 78 0 9 79 8 78 8 79 
77 79 61 78 77 12 79 77 78 
63 57 81 82 81 62 63 82 21 
81 82 63 84 62 83 10 84 83 
80 10 83 84 10 11 1 20 85 
85 20 82 11 85 84 85 11 1 
62 84 82 85 82 84 10 80 9 
86 83 62 61 80 86 83 86 80 
87 62 81 75 81 57 60 87 75 
81 75 87 76 61 88 73 88 60 
56 76 73 88 73 76 87 60 88 
86 88 61 62 87 86 88 86 87 
36 115 37 38 37 96 98 97 90 
91 99 98 97 98 99 39 99 7 
35 91 34 7 99 35 99 91 35 
38 97 39 97 99 39 96 90 38 
90 97 38 100 110 29 30 100 29 
102 101 89 103 92 101 102 31 103 
101 102 103 32 103 6 103 32 92 
33 92 32 6 103 31 31 102 30 
89 100 30 102 89 30 104 92 33 
91 104 34 104 33 34 105 101 92 
106 89 101 93 106 105 101 105 106 
98 107 91 108 93 107 90 108 98 
107 98 108 105 107 93 104 91 107 
92 104 105 107 105 104 109 100 89 
94 110 109 100 109 110 29 110 28 
28 111 4 113 112 94 112 113 25 
24 4 111 25 24 112 111 112 24 
110 94 112 111 28 110 112 111 110 
96 114 90 115 95 114 96 37 115 
114 96 115 117 116 95 26 116 117 
113 116 26 117 27 26 5 118 36 
118 115 36 27 117 118 118 5 27 
95 115 117 118 117 115 26 25 113 
119 95 116 94 119 113 116 113 119 
120 114 95 108 90 114 93 108 120 
114 120 108 109 121 94 106 93 121 
89 106 109 121 109 106 120 121 93 
119 94 121 95 119 120 121 120 119 
47 46 148 45 129 46 131 123 130 
124 131 132 130 132 131 44 1 132 
11 10 124 1 11 132 132 11 124 
45 44 130 130 44 132 129 45 123 
123 45 130 133 42 143 41 42 133 
135 122 134 136 134 125 135 136 40 
134 136 135 8 0 136 136 125 8 
9 8 125 0 40 136 40 41 135 
122 41 133 135 41 122 137 9 125 
124 10 137 137 10 9 138 125 134 
139 134 122 126 138 139 134 139 138 
131 124 140 141 140 126 123 131 141 
140 141 131 138 126 140 137 140 124 
125 138 137 140 137 138 142 122 133 
127 142 143 133 143 142 42 43 143 
43 4 144 146 127 145 145 25 146 
24 144 4 25 145 24 144 24 145 
143 145 127 144 143 43 145 143 144 
129 123 147 148 147 128 129 148 46 
147 148 129 150 128 149 26 150 149 
146 26 149 150 26 27 5 47 151 
151 47 148 151 27 5 27 151 150 
128 150 148 151 148 150 26 146 25 
152 149 128 127 146 152 149 152 146 
153 128 147 141 147 123 126 153 141 
147 141 153 142 127 154 139 154 126 
122 142 139 154 139 142 153 126 154 
152 154 127 128 153 152 154 152 153 
55 181 54 53 54 162 164 163 156 
157 165 164 163 164 165 52 165 3 
19 157 18 3 165 19 165 157 19 
53 163 52 163 165 52 162 156 53 
156 163 53 166 176 50 49 166 50 
168 167 155 169 158 167 168 48 169 
167 168 169 16 169 2 169 16 158 
17 158 16 2 169 48 48 168 49 
155 166 49 168 155 49 170 158 17 
157 170 18 170 17 18 171 167 158 
172 155 167 159 172 171 167 171 172 
164 173 157 174 159 173 156 174 164 
173 164 174 171 173 159 170 157 173 
158 170 171 173 171 170 175 166 155 
160 176 175 166 175 176 50 176 51 
51 177 6 179 178 160 178 179 33 
32 6 177 33 32 178 177 178 32 
176 160 178 177 51 176 178 177 176 
162 180 156 181 161 180 162 54 181 
180 162 181 183 182 161 34 182 183 
179 182 34 183 35 34 7 184 55 
184 181 55 184 7 35 35 183 184 
161 181 183 184 183 181 34 33 179 
185 161 182 160 185 179 182 179 185 
186 180 161 174 156 180 159 174 186 
180 186 174 175 187 160 172 159 187 
155 172 175 187 175 172 186 187 159 
185 160 187 161 185 186 187 186 185 
31 30 214 29 195 30 197 189 196 
190 197 198 196 198 197 28 4 198 
43 42 190 4 43 198 198 43 190 
29 28 196 196 28 198 195 29 189 
189 29 196 199 14 209 13 14 199 
201 188 200 202 200 191 201 202 12 
200 202 201 40 0 202 202 191 40 
41 40 191 0 12 202 12 13 201 
188 13 199 201 13 188 203 41 191 
190 42 203 203 42 41 204 191 200 
205 200 188 192 204 205 200 205 204 
197 190 206 207 206 192 189 197 207 
206 207 197 204 192 206 203 206 190 
191 204 203 206 203 204 208 188 199 
193 208 209 199 209 208 14 15 209 
15 2 210 212 193 211 211 49 212 
48 210 2 49 211 48 210 48 211 
209 211 193 210 209 15 211 209 210 
195 189 213 214 213 194 195 214 30 
213 214 195 216 194 215 50 216 215 
212 50 215 216 50 51 6 31 217 
217 31 214 217 51 6 51 217 216 
194 216 214 217 214 216 50 212 49 
218 215 194 193 212 218 215 218 212 
219 194 213 207 213 189 192 219 207 
213 207 219 208 193 220 205 220 192 
188 208 205 220 205 208 219 192 220 
218 220 193 194 219 218 220 218 219 
39 247 38 37 38 228 230 229 222 
223 231 230 229 230 231 36 231 5 
47 223 46 5 231 47 231 223 47 
37 229 36 229 231 36 228 222 37 
222 229 37 232 242 22 21 232 22 
234 233 221 235 224 233 234 20 235 
233 234 235 44 235 1 235 44 224 
45 224 44 1 235 20 20 234 21 
221 232 21 234 221 21 236 224 45 
223 236 46 236 45 46 237 233 224 
238 221 233 225 238 237 233 237 238 
230 239 223 240 225 239 222 240 230 
239 230 240 237 239 225 236 223 239 
224 236 237 239 237 236 241 232 221 
226 242 241 232 241 242 22 242 23 
23 243 3 245 244 226 244 245 53 
52 3 243 53 52 244 243 244 52 
242 226 244 243 23 242 244 243 242 
228 246 222 247 227 246 228 38 247 
246 228 247 249 248 227 54 248 249 
245 248 54 249 55 54 7 250 39 
250 247 39 250 7 55 55 249 250 
227 247 249 250 249 247 54 53 245 
251 227 248 226 251 245 248 245 251 
252 246 227 240 222 246 225 240 252 
246 252 240 241 253 226 238 225 253 
221 238 241 253 241 238 252 253 225 
251 226 253 227 251 252 253 252 251 

CELL_DATA 504
SCALARS scalars double
LOOKUP_TABLE default
-3.2947296633 -0.23805726209 2.9574389926 4.4314228485 4.2201336552 4.5502408285 7.9314205242 6.0771394301 6.1034029656 
2.0738132216 4.0567130847 0.19259908779 1.1522224918 0.49010581164 0.90671062191 3.2007822777 5.7887543932 5.9200814193 
5.5721563882 7.6665117284 7.6315324383 7.6734486363 6.5151835939 4.7453690321 0.92466850539 2.5634937919 7.669228481 
7.9419469228 8.7397330128 5.6565129727 3.1091149839 3.0646195208 3.685492124 4.4205034126 2.1114288831 1.9301678767 
2.4745643237 3.5803871293 5.858919557 5.7301338807 5.0169335114 0.73188770964 -0.15114491881 0.54358910171 -3.4176280786 
-5.5293636412 -5.4378078377 -5.6854611534 -5.8598736346 -5.8211446795 -5.6297634043 -5.0403918414 -4.7188256164 -5.102155102 
-0.90015822211 -2.4346237276 -1.2907452569 -1.0778821375 -3.7916949084 -4.5415532309 -4.5948841913 -5.5285463079 -4.2628188 
-3.9567138572 -5.3018685148 -5.516876414 -3.5019221823 -4.574922515 -5.9368912069 -3.2869444769 -4.1729303428 -4.2225861227 
-1.6104819946 0.27509781536 0.35214393173 -0.30881355726 0.10464574111 2.6131210618 1.7037609986 1.7347628293 0.15622846115 
-2.3492894454 -1.9595804715 -1.6059784922 -2.8118017856 -0.96111926542 1.5418820126 5.4940852816 4.7961939089 6.0408559738 
8.0076615142 7.9543936699 7.8124998181 3.5895964611 5.2632244839 -0.99149017332 0.71399596095 -0.10970664953 -0.088446115534 
1.9009454169 3.4894887261 3.5014472253 3.3614264171 4.5070580591 4.6617046929 6.1615853463 3.7957238813 3.8416002604 
1.6641427018 2.2151135081 6.0582932893 6.3536312623 6.7028742195 3.1717644078 1.2531007084 0.88534284729 1.2237639851 
4.6788710228 0.92065706937 0.93759725247 1.5718590806 1.072534795 4.8458716917 4.1363271503 4.1107319979 1.2674504258 
0.49970510179 0.82464935038 -3.4811312119 -3.8914707595 -3.5714385986 -3.8051245929 -4.8604169699 -3.8504344313 -3.7529260765 
-3.5702660036 -3.3446692857 -4.0238999986 -1.0787331603 -1.6880805305 -1.2632205747 -1.2486789657 -3.7455691614 -3.5772774734 
-3.5208496145 -4.7485106778 -5.3365814336 -3.6545533533 -4.5759428086 -5.1920284551 -3.2540564677 -3.6856218811 -3.9110883371 
-3.0709606653 -3.2921921247 -3.4201052822 -0.86859168662 0.17673744871 1.7799309119 0.076455217227 0.079896009359 2.2111271962 
1.3120067965 1.7380666985 1.7466322386 -1.0634150508 -1.7445244591 -0.96288692643 -7.0930385624 -6.9946594906 -7.8665217105 
-7.7921426859 -7.8188634732 -6.9610776161 -7.8023319694 -6.9790775971 -7.7428256375 -7.2176295115 -7.2372352011 -7.667495555 
-7.3831894924 -7.8288080789 -7.8336441838 -7.6716468452 -7.6688206834 -7.2535396229 -7.6516210902 -6.7485058261 -7.0587703844 
-7.0500398068 -6.7747209958 -7.2507840002 -8.0436078785 -7.5914024169 -7.5360672788 -8.4277421976 -7.5274912631 -8.4879243729 
-8.7862328684 -9.3849740367 -8.8052029063 -8.3684671681 -9.5392802458 -8.1362375842 -8.2837826782 -9.4892206657 -8.5112256302 
-8.5647131567 -9.4498308431 -8.1904527946 -8.5781875329 -8.1452529681 -7.0242089102 -5.8886730557 -8.2023133292 -7.762029546 
-5.7942478035 -6.6071236407 -6.4970369426 -7.76754609 -6.514251393 -6.8697412119 -8.8112256729 -9.578087738 -7.2210198251 
-8.8256169453 -9.1729583119 -8.7446191925 -8.4535498453 -7.4444946753 -6.6163145918 -6.9920796144 -6.8164709313 -7.402410879 
-9.3057187147 -7.7214629488 -7.6613904485 -9.1097539525 -8.2320182822 -8.2428504576 -9.718670968 -8.8230705077 -9.998980044 
-9.8450697044 -9.097422984 -9.6256739521 -9.1758488356 -9.3374004219 -9.9606113436 -9.3574673472 -9.6628342669 -9.7285971541 
9.7054298845 9.5878329927 9.6842298963 9.7227005787 9.6036602139 5.6363502286 8.7147074401 5.8338795555 8.8810548943 
6.6593403743 6.7988800142 9.413329832 9.380832501 8.9579840349 8.8918891548 9.3491418164 9.4586538748 8.9135797372 
9.5340418796 9.0978905504 9.4065489474 9.3424770011 9.1026764158 8.941619783 9.083116039 8.9999297872 9.6927040367 
9.851582195 9.734202828 9.5730275123 9.4840465957 9.8543692148 9.3726649697 9.9252151349 9.8297183268 8.8781092865 
9.8433431861 9.8423502524 9.9382209166 9.6198268758 9.9650119096 9.1936131434 9.2258884937 9.0831834337 8.5840763696 
7.2537946169 9.3378631321 7.6412266275 7.1011761499 7.5108576175 7.4962079818 9.1013553757 8.5907105187 9.1357298899 
9.6317968868 9.4519205046 9.7045126322 9.5197907817 9.0285962722 8.6248511393 9.1304136828 9.3379010348 8.5416438388 
9.703426309 8.5554858187 9.3778116286 9.4055767028 9.6998128111 7.7171969305 9.2257738232 9.8370326681 9.559823918 
9.2895422326 8.9427850142 9.9661116289 9.3250665798 9.9798444114 9.9147094885 9.7663847202 9.9212865104 9.9686686903 
9.9466236371 9.1983334487 9.9724274774 4.1187725963 0.76289752961 -2.6488056862 -4.4925337627 -3.3000961192 -3.8753466626 
-6.6360656753 -4.9153395672 -4.9280149636 -4.0260644836 -3.2783862149 0.20349239238 -3.5876528188 1.5983681313 1.2292220804 
-2.8199449992 -3.214403685 -3.4703692306 -3.1371474482 -6.5045040465 -6.4833920265 -6.8840661675 -5.4587623717 -3.2091565258 
0.64485188823 -2.368257437 -6.5185571278 -6.591246994 -7.1283315355 -2.8990944036 -2.4275642936 -1.7107851826 -2.6814746211 
-4.2488635152 -1.3600393284 -0.83735816095 -1.5217987755 -2.3053771406 -4.4086059789 -4.1002381631 -3.7400380371 1.0941245559 
2.0180576038 1.4860936367 4.7673411236 6.6329351484 6.7848334931 7.46950508 7.4001598225 7.8039046605 7.3934704572 
6.266801328 6.5004883741 6.7114226952 0.39946229286 2.793994213 1.0670291838 0.93574783315 6.6437240205 6.9011985791 
7.02546622 7.2290591221 4.9144464359 5.1972290346 6.8163278444 6.7458682032 6.0213740502 6.244026831 7.6498353172 
6.4454943284 6.4079538199 6.8605794034 2.0425094804 -0.90784100997 -0.54952565317 -0.0092777524846 1.6479614781 -0.18832575593 
0.33060828484 0.69150823411 0.72455497952 2.5992063311 2.7879566443 1.9026910064 3.1629395895 -0.47533943809 -3.0391082719 
-3.9307309051 -2.9840129548 -5.3235751638 -5.7216590938 -5.978504336 -5.4419585686 -3.1530934615 -2.9836566948 -1.1736427421 
-3.1201452586 1.3306483522 -0.12443558153 -2.4707807941 -3.8100864185 -3.8030337158 -3.7412272066 -4.2503362177 -4.1091156059 
-5.3421941586 -4.1568559644 -3.2849383134 -0.76677039012 -2.4093479361 -4.9046902344 -5.1922503603 -5.326849467 -3.1609831896 
-2.2066355862 -2.471262411 -2.996614246 -3.7680986181 -2.254220068 -2.4504163074 -2.8877168562 -2.5462691863 -4.3435385214 
-3.812865294 -3.7760062007 -0.57036398041 1.2114777346 1.1191649599 1.9641347458 4.4599462485 3.2864778628 5.986544966 
4.6070066582 5.1031679541 4.2505207801 3.1894837922 2.8630571333 2.9183457581 -1.1099941014 0.086806020231 -0.43038833336 
-0.81208144341 2.7855574357 3.2416908939 3.204154227 6.4806236611 5.9920263259 3.7363092081 7.0308729094 6.2244307035 
2.2007084627 3.8984485319 6.8316100198 3.1311344654 1.9000976626 2.9007270324 -0.41363277368 -1.4113323294 -1.3754365409 
-0.77819487857 0.57553118188 -1.9287476156 -0.77412703381 -0.47999802713 -1.3705397621 1.1784290385 0.077690607523 -0.40550679556 

