# vtk DataFile Version 5.1
vtk output
ASCII
DATASET POLYDATA
POINTS 1244 float
-6.1747 -2.29088 -0.629618 0.586627 2.755 -0.0343206 -0.0994447 -0.913895 -0.70687 
5.1461 8.9203 5.45878 0.956286 0.235827 -0.721448 4.04768 0.444693 2.80455 
1.78855 2.53449 1.71713 2.74383 -0.32019 4.30868 -1.57142 -3.92901 11.2803 
-10.1508 -11.2579 2.69365 -10.3614 -0.993268 1.14158 -9.141 -10.7357 3.33297 
4.78134 7.72811 5.3144 -7.71556 -9.33757 6.72186 -10.9835 -0.778452 8.62101 
-9.85618 -11.8964 8.20284 -7.41689 -6.7289 1.3741 -3.30392 9.17634 -5.55147 
-6.91019 -7.51994 -5.78987 -6.17875 1.65824 -6.18874 6.99471 7.21123 7.03678 
-12.5134 5.02765 -11.5649 6.57756 3.22604 6.39337 -6.18501 8.39253 -6.25054 
-5.41727 18.0765 -5.73605 -8.74441 7.71125 -8.62396 -9.89676 11.6186 -0.972539 
-6.24634 6.0126 7.03688 -13.2478 -0.143952 5.51413 -9.55008 -6.51284 -0.00747552 
-17.4412 3.47642 5.18125 -9.64721 -6.78665 9.95958 -12.6866 0.0125275 5.65791 
-7.91765 6.94855 2.13618 -10.8421 11.463 13.2685 -8.61866 2.143 13.3546 
-11.8708 5.0246 3.0094 -3.86217 0.240856 5.98548 -11.4455 5.63078 -2.69191 
-15.421 5.44016 13.489 -12.261 3.87147 -2.21901 -1.04946 4.35312 5.82186 
-10.1073 0.526254 7.28297 -11.141 15.405 8.41601 11.453 -9.76764 0.252327 
3.14641 -10.2935 1.24966 -0.990378 -9.33377 8.78469 -4.9482 -9.34099 1.24588 
1.63013 -18.0842 5.12425 -6.99866 -8.44059 9.72233 -1.40733 -12.6091 4.30715 
6.90814 -7.53815 2.02152 11.6162 -10.9817 12.1482 10.7217 2.97592 -10.3142 
2.16982 5.91571 -10.7608 7.21273 1.15272 -3.26314 -3.47768 5.1358 -11.8163 
12.2893 5.30949 -16.2122 -2.2251 3.79599 -11.5834 5.28368 3.41298 -1.36941 
6.84719 0.727099 -10.5512 10.0876 14.9759 -10.8437 5.20642 7.55631 13.2875 
1.36472 -0.104196 7.61053 -1.73182 -0.19888 0.507564 5.72599 5.74673 5.98593 
-4.17987 -1.88298 4.08459 6.03939 5.59716 3.61652 0.1688 0.397786 9.56949 
2.19639 -2.23279 3.36312 5.85214 4.12779 20.2112 8.38884 13.1959 6.59642 
-0.614529 9.44685 -0.86268 6.34065 3.08376 6.37858 -1.86253 3.88981 -2.30276 
3.66155 15.915 3.53993 -1.11496 1.82024 -0.978335 7.74301 6.76307 7.8199 
2.01855 -1.16155 1.99311 4.8486 19.3722 5.03962 -3.84763 -8.44056 -7.76395 
7.94316 -4.632 -9.30507 2.11036 -13.0081 -7.43694 2.87238 -3.22618 -13.8578 
6.73226 -13.924 -7.51581 7.98416 -2.14522 -12.5828 5.56336 -12.9111 -6.97441 
12.1317 -3.86606 -12.0533 9.15686 -11.7658 -7.3184 -0.748726 -10.9246 7.5176 
7.94069 -5.61025 13.545 6.27277 -10.7064 -0.450096 9.05824 3.77248 10.9229 
5.0205 -10.7129 1.43718 0.431542 4.81951 10.7168 3.15077 -9.9274 -0.0513406 
1.32847 2.07016 6.19938 9.67413 -11.9727 9.33666 0.0326157 12.0964 -11.6163 
7.41774 2.66344 -11.3349 1.04516 9.15166 -2.98648 4.85808 1.90997 -12.6181 
4.91169 16.5443 7.68535 5.09018 2.14369 -11.92 9.17387 10.7562 -2.49798 
1.02722 4.40373 -9.64104 13.8371 9.76675 -9.62746 3.83606 -2.18774 14.7617 
9.92816 0.513026 2.63723 2.97217 10.2765 6.95158 6.56452 -2.13083 -1.60676 
6.20775 -3.65163 11.8564 3.31561 -1.19284 -1.40114 5.93128 9.57493 6.49944 
2.46432 3.0803 4.34851 20.6969 3.83764 6.11149 6.61081 -0.342527 4.29644 
-6.65595 -0.171878 -0.69832 5.59576 5.9354 9.88173 2.97002 2.98008 -2.3439 
-3.94022 7.38377 1.05445 -1.05278 7.56185 15.5586 -1.08353 11.3988 3.14043 
-6.49027 1.53968 9.4401 -7.27936 -0.931898 11.2884 -2.24313 -1.28881 -3.05722 
-9.55884 4.66023 -0.332413 -3.76755 8.6001 7.48775 3.81689 -1.81285 2.27 
3.00071 5.13847 10.5094 1.95093 3.59104 10.226 1.41252 -3.28679 11.0779 
0.771735 -2.87762 -1.37682 -1.04191 3.24098 2.48519 -4.66972 1.17062 14.4623 
-0.0212224 4.80617 1.73715 6.62431 1.83064 3.87257 -6.19164 7.97298 11.5851 
-9.07782 7.21254 11.9544 3.44681 14.4656 9.51992 -4.87659 -3.35231 10.3994 
-5.51782 -1.04476 4.26598 -3.46392 6.32393 7.17202 -10.9088 7.4359 1.42351 
3.95523 7.48437 -2.71848 -3.0949 5.07026 7.61293 -2.35013 4.19724 6.99704 
-6.49323 -0.0567512 6.2566 -6.74039 -5.69851 0.385147 4.63462 16.1403 1.36376 
4.05226 3.99446 3.84329 7.49663 8.14911 5.03381 3.68338 10.145 0.011073 
-1.75299 2.42642 1.77037 -2.54501 6.36588 -1.6183 4.86747 6.85501 -2.58002 
5.3653 0.531788 8.15035 3.31172 8.91856 1.92568 -9.46237 1.72206 -3.43835 
-0.98098 3.51873 -2.05384 7.26769 3.49345 9.32958 9.63014 2.78692 7.06997 
-1.60332 3.75439 13.0001 -9.19743 4.35084 12.4217 -1.05177 6.31108 12.6788 
-12.9504 6.38189 3.54355 2.32875 -1.25203 7.21992 -4.05916 -5.12389 8.1746 
-1.12809 -5.49645 10.2928 0.312126 -2.43928 2.91749 -8.57874 0.235279 2.08108 
-7.39232 0.31272 7.179 -1.33363 -1.65865 9.22997 -0.213289 -7.02622 -0.459387 
1.18256 3.99779 13.2854 -1.04149 4.30982 2.81451 4.75661 5.24307 16.3386 
5.37377 2.44615 6.40191 -5.7451 9.58774 11.6111 -5.03413 0.880091 15.9967 
-1.88726 2.13068 3.97135 9.77647 11.0407 9.28891 4.90891 7.18727 14.9774 
2.25604 14.6444 12.214 -2.24551 1.65302 10.4861 4.58626 4.23395 4.43219 
-0.818562 8.9978 -0.14834 -11.2556 7.73464 1.5613 6.49748 9.44127 14.024 
-4.34546 4.80824 3.44155 0.177682 -2.06152 2.92794 0.408798 11.5096 2.21122 
0.724176 2.76424 7.6838 5.69664 7.51661 8.77433 -2.26508 10.1636 5.32703 
-1.25739 12.5038 12.9293 -1.29117 11.6019 -1.06892 1.38487 5.79522 13.548 
7.33609 3.11751 -2.37604 -10.2656 1.66184 1.04549 -0.010876 4.54642 -5.74496 
4.8618 5.26897 -3.91772 -3.96673 5.49647 7.62503 -7.66526 5.86281 2.6834 
-0.34873 5.80017 -6.59505 5.60707 7.68571 9.53659 -0.992622 5.72814 10.1957 
-3.41258 15.1875 3.97202 -9.2894 8.34383 1.49237 -2.6026 6.24148 -4.13633 
4.52019 9.8063 -4.61902 5.07362 3.47536 2.11913 -5.30957 12.8139 -0.686366 
-1.2011 -2.44725 6.89369 2.68696 3.27903 1.11998 -2.00204 12.8491 -2.08166 
1.90898 8.70439 -1.73702 -2.65074 3.65173 -3.41246 4.62743 10.0711 6.40263 
-2.99151 12.7858 5.45419 -10.6019 4.40766 -0.0825808 7.94906 6.58047 -2.74888 
-0.365536 14.0649 5.83566 3.7529 14.7713 0.781376 -5.89313 8.7183 7.43303 
5.27101 12.0397 9.34139 -6.27931 9.6769 9.31861 -2.77798 -2.21701 4.54336 
-4.64301 11.9675 -1.81522 -0.743774 8.91185 9.43321 4.42989 2.34087 -0.767261 
-3.74064 1.91233 -0.698637 2.98065 0.795821 7.31806 -3.29886 0.579512 8.45554 
-3.3549 7.99297 15.3224 7.28704 5.52796 8.03608 3.78168 9.35107 3.77961 
-4.16549 1.19179 9.57143 2.05937 14.378 11.3947 -3.07452 13.2161 5.1206 
9.26317 6.79348 7.94338 -5.42031 9.53968 7.95892 4.1621 12.619 9.09623 
1.2628 12.2637 -0.730407 -7.35573 4.81086 3.85285 4.68601 3.25286 9.95004 
-0.0787098 3.69653 -7.15136 -2.93353 6.98179 7.90799 -6.92693 3.14573 2.1898 
-0.648461 8.7515 8.6547 4.62415 4.54266 -1.4638 4.00667 -1.10923 -1.36251 
-4.41602 1.11545 1.43381 4.35054 0.0336538 -2.6837 3.92401 -0.521572 4.63699 
-2.86757 5.54431 3.5409 -0.282291 -3.74498 8.65689 -9.95608 3.10819 7.39308 
0.344272 5.2967 -0.799128 -4.75898 -5.89064 2.96391 1.71307 6.54609 4.10689 
1.17712 -5.69778 0.637031 -4.5873 4.44884 6.31225 -1.82196 -4.46861 2.08896 
-0.747068 4.81254 -4.56196 -1.52421 6.50186 0.167912 -3.75525 8.61591 8.05132 
5.86769 0.755293 1.22919 -0.359925 -2.92174 10.785 -5.41861 8.5101 6.58253 
-1.87228 8.12222 17.1272 4.15209 8.04759 3.86264 -1.688 -2.62101 0.0539393 
-8.8044 -2.51546 5.27374 -6.77496 4.81373 2.02128 1.30655 -4.44387 9.43926 
1.47135 5.95505 5.96496 -5.85731 -4.85586 6.6892 -0.0486737 6.76258 8.97431 
2.93174 2.09981 14.7517 -2.42314 -1.62264 4.76244 4.16142 1.45211 8.20234 
6.33377 -3.72585 13.422 -2.98612 6.41688 4.29525 6.49137 -4.44148 9.78177 
-3.30198 -3.49261 11.1629 -7.06576 -0.146646 4.07817 4.13847 3.80036 1.76491 
-0.245299 -2.5253 11.4685 -0.366546 4.32189 11.2978 -3.92386 -3.68322 3.18973 
-4.77036 7.07633 6.66432 -3.29715 2.69089 0.370374 -3.66257 4.64115 10.5478 
-11.3026 5.78685 4.106 5.87099 7.0004 4.52325 -2.66436 8.30286 -1.43897 
4.00588 -2.06062 2.25568 -5.99103 4.47131 1.13621 -1.80832 12.1358 7.53928 
-6.60217 6.36832 -4.8297 9.44226 0.910985 0.521272 -1.84367 14.1353 18.8052 
-1.61685 -0.647966 -1.17292 12.7606 -4.30806 4.60523 6.19936 -1.5429 -1.20065 
14.4878 5.63622 8.65149 -1.48727 6.03766 6.89546 9.81975 4.56911 -0.382277 
2.1183 3.95387 10.9356 9.3394 8.41669 1.48451 -0.559357 7.57725 4.46664 
7.45057 0.950542 12.7664 10.1719 -4.59982 0.639155 6.34656 2.73122 4.47245 
15.0185 10.6045 11.2014 15.6297 -2.03104 2.95754 12.4104 8.19859 10.3402 
5.8403 -2.23834 10.1928 7.58806 -3.51538 2.3622 5.58866 -1.07233 8.05681 
8.47247 0.584568 0.211212 5.60188 1.40984 13.9626 8.34604 3.80576 1.1504 
18.9267 2.79857 9.56353 4.94082 12.7218 9.71304 10.0774 7.82121 1.88063 
12.2251 16.3285 11.3325 8.23526 -2.5245 4.55402 5.48898 -3.77326 4.38338 
5.84391 3.64854 9.25228 2.31945 4.85788 0.364648 15.3255 4.22976 -0.243386 
12.3684 -0.0792859 4.42498 11.7386 6.40641 5.15438 5.78936 -3.97984 5.83685 
7.05584 -2.27464 2.97677 11.9308 16.0623 2.51262 13.6502 17.4539 4.39639 
3.20519 13.4927 1.73286 11.4426 10.4433 10.5384 5.43352 8.2347 8.35438 
7.64968 7.76482 0.99644 13.0827 4.0849 -4.65916 12.4809 1.97354 6.98356 
12.8596 -1.21589 6.24271 2.76461 -0.305463 7.16997 8.02655 4.37608 0.673473 
17.5032 3.69583 9.50882 19.6173 2.9107 5.12888 8.02448 5.54521 11.0704 
2.07002 -1.04344 4.53477 2.26662 -2.77051 13.1123 -2.32606 2.42492 5.17687 
11.6885 -1.35084 7.50497 12.7157 -2.86019 5.69109 15.565 -2.37917 6.34823 
2.12336 0.196241 7.28495 3.31995 0.265924 9.94225 3.41365 0.866593 -1.79407 
7.30788 -4.45365 6.19724 12.813 -1.61237 2.46858 12.6276 3.50047 14.6447 
8.6076 4.13752 2.05532 15.6965 3.26597 16.6693 15.098 4.54458 7.4029 
6.15723 8.8268 15.5027 10.345 2.85153 11.9288 7.1199 2.48087 2.9373 
13.6307 9.59857 4.07423 13.4037 7.44682 16.477 12.5441 12.1159 11.4401 
4.85472 8.90864 15.0336 0.0459126 5.56801 6.18235 10.1341 8.23882 3.1996 
7.87215 -0.290078 11.0609 15.0821 11.6218 16.1936 6.76796 8.23289 1.27469 
14.965 0.162111 3.97976 7.77861 13.9182 4.71551 11.1364 4.36075 12.6405 
1.34201 6.04498 5.8894 9.52347 11.6772 10.4746 17.8277 10.0833 7.42957 
7.98371 12.1937 0.686522 12.4799 6.81733 15.74 15.0253 3.10761 -2.84052 
3.14919 4.52656 0.124879 11.0787 5.13753 -5.82364 17.3682 4.65573 -0.106706 
[...]
CELL_DATA 2484
SCALARS scalars double
LOOKUP_TABLE default
-2.6394897563 -6.483620163 -7.5170457436 -2.7597805645 3.4301178848 -9.8007777539 2.9769732623 3.1586350545 -3.6806596066 
0.12300404015 0.7848618932 3.4469626389 2.4236086634 -9.8544939462 -0.99068855768 -3.9201397484 0.51084355485 5.1128207837 
4.0943458314 -6.8000353542 3.9390658715 -3.5689047462 -1.5679114787 -8.7411894104 -7.9947816257 9.0333167873 7.5272338467 
-9.9223889569 9.014167372 8.8094529369 8.6152202235 -8.644187291 -9.0340308005 9.9363098251 -9.9929031211 9.9676495605 
-4.9601192582 -5.4325097883 -7.0403947362 8.077294301 -3.3062403005 4.802526836 1.5922014438 -0.93430717482 8.2663776359 
-9.7658816301 7.8772282545 -7.0990554899 -5.1937627485 6.7550355891 5.2508470454 -5.9450278052 9.3851654549 -1.6183370073 
0.36384230239 -5.9192487151 -7.4991295522 6.7497074711 4.283302882 0.25392615574 5.0246287688 -4.0173831324 0.21825001449 
5.6440434992 -7.3396528749 4.4817063898 -5.6632128022 -9.3031162918 0.53369324394 -0.20222302458 5.0051497718 -7.5385868601 
9.4676245746 2.4336932498 7.1645285137 -2.2206059638 -4.973686304 -1.9617186453 8.2469263026 -0.92473822569 -3.8269524075 
8.5017372579 -6.5535669234 5.7427306984 -6.7597984219 5.399454321 3.5406990612 -8.6013588862 -4.4958295918 -9.9335714888 
9.9569978355 -7.3186649775 -6.6258494176 5.9371270381 7.3696729549 9.0074799689 -8.6422450361 -8.7226061234 9.0429644757 
-9.8357619854 -9.965179255 -9.7850954841 9.8884419136 9.3567641784 9.509728911 -9.7923244078 8.9075561477 -9.1691701317 
-9.9996916347 -9.9054195034 -9.5803598264 9.9222438386 -4.5217646125 9.222598683 1.7265321475 -2.9833401694 -8.9393139824 
9.6312460743 -7.1807799022 6.8361836301 0.9481362513 9.4932365314 7.3269288949 -5.0296429306 4.669701782 4.2724340039 
6.9540532507 -4.9188497724 -6.0239900437 -4.0923976418 5.025877244 -7.0806707099 2.5059140422 5.0103294035 -2.0097886219 
3.8330521722 3.3221292203 -3.7452214308 0.88314677792 -6.4962748334 2.4492134279 5.1972578064 4.865750364 4.6846863764 
4.6323577839 -3.729661732 0.26741181125 -1.0183908622 -6.51012724 0.15971942663 -1.7205787963 -2.7063009926 -3.3903904341 
-6.6578528754 9.4120261652 3.2318573316 0.94984698166 9.3996838049 9.9374578094 9.7473512564 9.9880575187 -9.9570329589 
-9.2586523029 -9.9331292799 -8.7081397366 -1.5964046684 -5.3514068267 1.1435189196 -4.7789440447 -5.6970059813 0.63215263668 
-5.709489377 2.5736719067 8.7034226925 4.3705319033 5.7231669259 -0.086965663102 -9.7769079464 0.24441211312 -0.82829492946 
-3.1159299604 -9.4699657537 -4.3911578333 8.3509920781 -3.3621468205 0.059279963664 9.5358878246 9.2686073276 0.43446111643 
-8.5979073044 5.4942452154 -6.5759477117 -1.279287826 9.894807665 6.6063856192 0.54515928069 -8.8070929626 0.50083638 
5.114304644 -9.2178073095 -9.5713810423 9.4908497842 -6.4197063129 7.4186669017 4.1897353408 -4.3029289154 -0.46594815517 
-6.3681876959 -8.8766885486 1.2895321238 -0.44407586952 6.6461588751 9.3622783911 -3.4760100834 -3.2006759007 5.0686841748 
-1.5447240812 3.187127087 6.4422552083 -0.29847088712 -5.1473772043 -8.9606104962 4.141040676 -5.4212598763 -0.40331267921 
0.35519183491 1.6132974736 -8.8489629513 -6.2054526858 9.4845254212 9.9613211333 9.3171470517 9.6101898017 -9.9340354936 
9.7613005624 9.5023688127 7.8756516431 -9.6637941062 8.4796442916 9.2313353659 -1.2960633067 -8.3909241878 -9.7890470599 
-9.4459306774 -9.2333870355 9.988555431 0.45668149826 2.8850189747 -4.2667863056 6.5279949797 -0.82950623619 -1.6709170768 
3.7316852198 5.4110232853 -3.9907634383 -2.0915859994 4.9625419675 6.6595631278 -5.6557048517 9.1240468524 -7.4595963889 
5.2053670835 -4.4608385493 7.2245121351 7.8193217032 -4.5571646246 0.8355854533 4.6035654056 6.4330877682 -2.6028384735 
-4.1396932294 8.9341531676 -5.0951356905 -2.5579424583 -4.9752679839 9.430723481 -2.7990493895 7.3256931995 1.7470455758 
3.7011996062 -6.313355206 0.63626003953 -2.5575369179 -7.888021393 -8.1912060222 6.3405511176 4.4762631404 -8.147799852 
-4.6287723495 1.3125732973 -8.289817099 -8.951597226 5.3504660631 8.3225031818 7.4467769528 -8.4903592785 -3.8822341425 
4.977271892 4.6111536013 7.6807525634 5.7156340206 -2.7932992351 -3.7704676823 -2.9487445057 -2.2870921248 -2.3684582546 
8.2303652532 -5.9149429357 -1.701930992 1.8944473554 1.2981149789 8.0749831993 4.1495514926 -2.8448550277 -3.6954035183 
9.4792527801 4.0485531759 -4.2871186154 -4.117559636 -2.0170016714 9.5333216547 -3.55351729 8.4923837239 -4.1856882343 
-8.2117178506 6.4155415692 -5.8468216581 1.0957237708 -1.4616181517 5.4453992595 4.8491894934 4.5672241743 0.5682129225 
9.8641399435 -9.2114040143 -7.7900175155 9.7080893724 5.9183609859 6.0015039253 -4.7340192692 -4.0171672457 -2.9751492185 
5.6768996084 3.7140155877 -0.19852731914 1.3704764548 2.8468639343 -4.0670238148 5.9647351425 -5.578201737 -7.4042639828 
-4.8619323969 -3.5019091983 -8.4657325654 -6.8093496327 -3.9938857125 -7.8475418237 6.561486504 0.25984531069 -4.8640531505 
-9.644617365 -1.8637822512 9.8836456954 8.4441994064 9.1552544283 -9.0447213684 8.7938406078 -9.1064436031 -6.1717248995 
8.2354071137 9.7190960231 9.9732279494 9.8230200756 -9.7993096904 -3.2810650479 -8.5242086922 -6.4019109613 6.7302553139 
9.8935382432 8.9113884266 -9.7934477643 -9.4318266871 4.784215198 5.1464474283 1.3956995369 -4.8177294116 -1.3239330346 
0.14129123054 -0.5571508133 1.4857873916 9.8262910927 1.2790421902 -9.4282350808 -9.4247911937 9.168276792 -4.8224165679 
0.49337175481 -4.8121380288 -8.4225366475 6.0489750024 0.63830655502 -5.8800547517 -1.0951322636 -3.5790170933 5.143708936 
1.0800758195 6.0666253298 8.3567810612 2.6891150232 -4.1042279564 -7.8068463753 9.7635635295 4.4281354637 -8.0353607006 
3.2799047226 -5.5081074155 -1.9117891496 4.1346598633 6.7677747096 -3.2476960887 3.3807783029 6.1970151517 -2.6616045756 
3.1457593882 -3.4788867435 6.5681392935 5.9806545074 -2.6128345511 -7.3149557667 2.3537874224 1.4436596535 0.31087384261 
-9.7586092797 -1.5445541698 -3.8567471913 -3.4882214079 -2.6761372729 5.2787488707 6.530383165 -9.448998708 -6.5641731686 
9.9643981701 -9.6503576919 -8.3248226772 7.5418163894 8.6523176474 9.6133767887 -2.6579292717 3.9802584672 -3.9841418875 
-9.854195386 -7.0293809803 4.5989683415 -6.3468508935 4.916061807 -9.8604331859 8.4333182407 7.3426069889 6.0191121367 
7.2836310432 6.7035350685 -6.7125402316 -8.8901439828 -5.7553126533 5.7386430653 8.8258216315 -4.5651151833 -0.22173491249 
-1.804251122 3.1177856756 -4.4021198842 -4.9956879758 1.0304384484 0.49376148312 -7.7108820816 1.0277951611 4.4913541207 
-9.2754725085 -0.91467085632 8.4830999921 -7.7555102904 -1.8092061182 3.9214120853 6.080531924 3.0477163821 -8.0097619095 
1.2982356084 -0.63071366576 6.1303828816 -9.7278827922 9.6328878604 -9.4552760293 9.1268743273 5.019585576 3.5097677949 
-7.2055440448 5.9684724065 -7.6121385293 4.1397558886 -7.2990059648 -5.9256102692 9.1360214651 -6.1057587807 2.5100725767 
-9.7353686142 5.6159797864 7.9524232016 -5.6496921654 -4.057724813 8.894410589 9.8962329417 -9.9877438151 9.9323633551 
9.9544113832 9.6356476475 9.4227013324 -9.7701057246 9.9213648764 -9.9903167036 9.9924682365 -9.9516548553 -9.9201575581 
9.5822760034 9.0218467141 0.30845136007 -9.3250622042 -8.2858438036 7.8165266597 9.4781971494 -8.2603480264 6.198941928 
3.2952946163 0.85349354155 -6.5836327115 -9.2709246468 1.1234461486 -7.9895983697 8.863750773 0.48333688316 1.4790553797 
-8.2944973582 3.7817416144 -0.16234405849 -7.6858900136 8.1792579349 -0.031514158945 3.3318244416 -5.6192090344 6.6269539265 
6.0738851752 -5.1567036529 4.0768854261 8.3100817091 -5.1580615874 5.7165084015 -7.4537199448 -9.5679749114 -3.6594303833 
-4.9982839945 9.6563319113 1.117471555 2.1698425994 -9.4429453679 -1.2538158692 5.1147862929 1.1400007387 -4.8370545146 
2.4246806451 -4.150600296 -6.4083767277 -2.7852362058 7.1064130851 -7.6661096068 -9.5539612293 -9.7031561542 9.9172629052 
-9.8204788133 4.1466941062 0.90400984638 -2.2128856398 5.4271284143 -0.17771391781 -1.0434399844 -0.82414186061 -1.0062790075 
6.4199495358 -5.440073423 6.5237957109 -0.61358327494 -5.966031666 5.4324552433 5.5109240706 -3.1447876915 1.9856086885 
1.6774549455 9.7501208566 8.3172660093 -5.6494971583 -5.5903505141 8.5988679858 -1.3628628884 -9.7237435238 7.8437179141 
2.9509211029 -1.3692567581 3.5411507185 -0.83058758727 5.1151492507 -9.6055480835 9.4278220285 5.7946959847 -9.607262911 
4.3079052804 -6.1727716019 8.4892265011 -7.5259618449 4.6221551875 3.4824380827 3.5422561651 -2.5489766777 -4.7951449123 
-0.84614765995 9.5373684328 1.3895647839 3.4299497004 -8.5128508647 3.5299682204 2.1358603396 -1.8529063568 -3.6083540576 
1.2518705233 -0.74042260867 7.5590258969 -6.4500002508 -3.158888374 -8.1809612847 4.7388628697 -3.1013677395 -8.0943359234 
-7.9191380433 -2.2745156267e-05 8.6098843562 9.3462855972 -7.364548257 -9.9908052549 -9.956428102 -9.9582523269 9.9567497285 
-9.986677719 -5.5742961141 1.9103224052 7.1946277228 -8.1295034754 -9.8780550913 3.2524308883 7.6817290013 9.9230733459 
9.9674375006 9.9780380429 -9.9742229216 -6.8174940912 -6.6692795903 7.6737609004 -6.6948867689 0.30291473833 -9.1184075257 
-0.89176977809 -1.7648148852 8.6578790708 9.3804020944 -8.7350703623 -8.7788434916 8.4941698666 -4.4829822192 3.3058334768 
4.3881642487 6.0310506578 2.0058493435 -2.0467593535 -2.5112450671 7.8482277165 9.7626364343 6.2623695258 -8.8867026917 
2.509781317 3.2975762467 -7.195091954 -4.9202087354 -4.6240289564 -0.86194222735 -3.6022923863 0.84541614548 1.0731723872 
-7.8766477331 8.7179368548 9.102304862 2.5316446698 -1.8426467038 4.0609370913 -1.6864489747 -8.7588701847 5.9695381804 
0.16197980315 -0.41064425028 9.9553426988 8.9164223692 -5.6368761742 -8.9471721036 -7.7181717022 8.1515667192 5.9844779873 
-6.5109812045 -4.0112749447 -7.995845026 -0.25667933686 7.1431973239 2.7038495617 1.4547193439 2.5775355984 2.2407893534 
4.5862533975 3.7223366406 9.4649673358 -6.211111301 5.2897346467 5.9290004684 9.1057325232 -7.5179484518 -0.29653503946 
-6.8520950615 -5.9868628487 1.8140624854 0.56668390395 -8.7167588636 -0.49626159843 0.098002716975 -5.7356704628 9.2920315331 
3.7292962685 -7.6741471813 8.5051160999 9.4672784025 -9.4664838593 0.85595539243 2.734729591 -9.5925869481 -5.5050691834 
2.2406792724 3.1800433463 5.7026453682 2.1892309029 4.1579775647 -8.7904306565 -0.067123913379 3.1602085669 2.7047906631 
-8.8387281104 -9.2573452092 -4.6203992656 5.8363994056 2.21866089 -4.8581348223 -6.0509608694 8.6632809384 -4.0875462882 
-1.9019033738 -2.2613348925 1.7375831683 9.6533143959 2.6740678335 9.2414454941 -8.733812764 8.3386440361 8.8449906761 
4.3097455747 -7.6953927241 -9.9975093506 0.66649590477 0.34658293337 2.2114220866 -8.071434498 9.3945757564 6.7502531536 
-8.8291134247 -9.9188868585 -9.9241599371 -9.5423453116 9.9551289405 4.4363921153 8.2695761586 -8.9148831821 -6.5968489376 
-9.4341538368 -8.9157066896 9.6516471206 9.3364187746 0.66871623371 -7.2807834057 8.3088123273 6.5416531505 5.0603161189 
-0.10560066878 -2.0244692694 -6.6021436418 9.4887914851 1.8265599151 9.9503345552 -8.9734325419 -2.8266650883 -9.5754240478 
-5.0319711154 7.5233586203 8.5330214921 -6.3134162894 -2.0522044532 6.5445057039 -4.5638921146 -4.9610008005 -8.0946009508 
3.8023465127 -6.6740618563 -9.4379358993 -1.8711071661 5.2151454692 7.8622309448 -9.6670107557 -2.4877104829 7.8182068719 
-1.0590957782 -2.9762043621 2.1630024736 -2.2952224914 -2.913975009 -2.3101053445 0.62769658821 -2.0627130009 -0.75580668505 
-5.4640349456 0.23972415181 -0.97306802487 -0.36426962627 -0.29269124983 -8.5700172178 -3.6370454524 1.1005296048 2.7182701834 
2.8562375764 -0.39444900308 -3.5414224703 -0.52051282038 -0.062927862643 -7.0417687996 6.0019236604 -1.1801502866 7.187949821 
-8.015950995 -4.618386723 2.6018886597 2.814178804 -2.5076251822 5.0545702656 0.05981522617 1.1843505493 0.33008718872 
-9.3996048691 4.3906577415 1.6868871993 6.0578669803 -9.5172101633 -7.3936290307 8.1125732484 7.7523934186 8.5639445945 
8.0467867056 7.3323987613 -7.9431343004 -6.1465308142 -1.0280673602 1.809838752 5.0182943341 -0.2840594162 -0.29095760947 
-1.830650396 -2.2133722136 6.3741993335 8.5488311885 -2.8718170345 -5.5527236074 4.5990627505 -0.54220345273 -6.5010299501 
0.21667294141 7.3783024705 1.155472158 -8.3456387167 7.9250017535 2.4475624023 -3.8055308521 -8.2946937456 1.9761543178 
-7.9178529155 -1.1336311492 -1.4796094529 -7.9491223937 5.579312408 -7.1977809995 7.8867537557 2.7829427721 -4.0352845977 
2.976796374 6.4373788166 6.3198099768 -8.5128805172 -8.7224176837 7.6840542853 1.6533825459 3.7681552711 -0.6317065708 
-8.7116955853 8.1336970737 -6.5728051525 6.0118416434 -6.198363173 1.8286359533 -2.4677147584 0.63138562071 -1.3324971037 
1.4416856811 -1.9186234031 -0.19383260504 1.7575078601 -3.2035788244 1.1154492268 -0.16394626998 2.7912813304 -0.7271251837 
2.0576773927 3.2057859549 3.0992951739 -2.9920766947 -1.3146264706 -1.7866882037 -5.0531566853 5.1682413287 2.7721762359 
3.639147088 -1.7063986427 -4.3331258841 -0.39131028507 -2.7192247895 -3.1410730973 3.1315604724 9.7952826336 -1.9011977069 
7.0504454445 -8.1668091062 -1.9654439497 -8.7202408629 -0.7035768549 7.1849772528 3.1433843289 -7.5385957843 -1.2605678676 
0.50683776752 -5.0137468664 5.5792063229 -8.8349274978 7.6255070153 -4.7990718715 -8.3768964804 1.5073345607 2.5233035999 
0.50483865958 -8.6033387074 1.8569790491 -5.8211743251 -1.8999062297 -1.428926232 0.82139320106 -4.7550159295 5.6281937163 
5.5951086751 1.0640462094 -0.98963455416 4.3558633746 -2.0759655265 -0.16483714041 -0.9410849747 1.9193490907 -0.71833253461 
-0.32700296313 -2.7936319428 0.32153918319 -8.9816174959 1.6889284807 1.9920813424 1.3161563332 -2.1774734561 1.7424256424 
9.4066932314 -0.13676977888 -8.9001478214 0.25574156321 -1.3837900587 -1.664622885 -7.2370519617 4.039701636 -3.7496043153 
-3.5301011865 5.9248354264 -2.87494053 -0.41724434395 -1.1633754773 4.5529891843 1.034053637 -0.2690994339 -4.1786567991 
3.2650530419 6.9323879868 8.9771270226 -4.6915446702 -8.3508289382 5.4958864729 7.478481406 0.44523327889 -7.7817332145 
-8.5779325669 -6.6583271843 -6.8671134871 6.6920093858 2.0105151672 5.9789411728 -9.2130017781 -3.7168398598 4.0346147878 
-6.4192482204 -2.2760974739 -7.4208567812 6.7614421004 -4.6863493968 -2.705336256 7.2412785051 4.9532702155 7.0133445611 
0.21536369292 -7.3984663134 -3.6917396132 8.7952102231 1.7342777702 2.4917903857 1.1393655259 -0.45627984845 1.4704456392 
0.32345838804 -3.6122902846 2.7346182549 5.2839158215 0.27366511671 -0.67926719328 -5.0073714267 -1.0956779328 0.34568621678 
-1.8706975434 -0.41005544526 0.2492962788 1.009299557 -1.6338380963 -0.066036835978 -7.1140075531 0.61262216033 -0.33475305976 
1.7251595201 5.00849043 -0.7961828531 -4.3763585073 -2.1951391361 -2.4485059822 1.7708266949 -6.5040634251 -1.0216478924 
8.1729794756 -3.2504514566 -2.0175148716 1.7512222272 -6.441490331 2.2070338174 -6.376283822 9.1542009675 -5.6193159527 
3.1454479864 5.2254375068 8.5845979695 3.0636890943 -9.8954357172 -3.422629876 1.4886853864 7.0569663923 0.37491814177 
2.310054433 0.51130464788 6.302436934 -3.4428681357 -1.6681610148 3.7310707297 -5.2250373887 -0.35112859449 4.8907528829 
4.9768448288 5.8052921359 -6.0361814877 -4.5798110329 -0.31628669625 -4.0632600364 7.2214583295 -5.5673983148 2.2562808622 
-3.1762857482 9.6331291096 4.2967727582 -5.0020022793 2.9433519843 4.517559526 -0.094801325222 7.4257596905 0.67284628165 
-7.3857379128 4.9156265309 4.8727660592 -4.004213355 -9.7341374833 3.0672940925 6.7175847816 -3.4613663689 -6.9895270733 
0.81750925014 -9.272537336 8.5681177369 9.3809921599 -4.4565694985 6.4437992669 2.1452165127 2.1294637667 -0.25425371457 
6.6923709361 -2.3318949916 8.2248078655 -6.2207145799 -1.148262196 3.2580735724 -3.1622745852 -4.7655372666 -9.6127417773 
-4.2192350638 9.2674418692 0.11726808031 -7.536367034 7.0080263749 4.6722323704 -1.2244407536 6.3518685723 5.0493284434 
2.8104944164 -0.12843920208 -0.87329537599 -7.2455488197 -5.3275167965 6.8208996666 4.0852496321 -1.7363282549 -5.6379420278 
1.31104373 1.626226747 -4.6686857673 -2.8463131537 2.3595608742 -2.8579424978 -1.0434092112 2.5601602616 1.3736512808 
2.3043965261 1.6546412097 -9.7279178222 -9.9328174931 -2.4934410613 7.0640134003 6.9685568145 -8.95322246 -8.183625072 
3.8045724558 8.3872024314 -6.9020230019 1.6644637938 2.3285148772 7.0863120699 -9.0272361144 5.6020046249 -2.0173286105 
-6.2910888741 1.5025491881 -3.9618829264 -0.13966513297 0.85113906119 -1.5423254381 2.5476260649 -1.8400600368 0.04892895767 
1.475538154 5.1992604522 0.40887649458 -6.2068400675 9.3981096824 7.8782298723 8.9116910852 -9.8392197556 0.074608372787 
-6.1367240612 -5.7575310895 6.5128495867 -1.482489292 3.751887857 -0.63368794853 -2.2860885924 -5.8867792901 3.1092652455 
0.80018133949 -6.8276369436 0.7027046088 -6.3834292713 5.3648995707 7.6377704661 -1.8028059995 -4.1086080051 2.5990726287 
-2.1949535681 1.6929852764 6.8066665157 5.5739986827 4.0030915469 -6.2339984065 -3.969037758 -2.1057516392 -4.7551999183 
4.5781779812 6.1757646735 -8.4669535427 8.1947850119 -4.6216121354 -0.82127857182 -0.042259896893 4.989792134 0.91144007361 
5.9988209688 2.5658445562 6.6774359909 -1.905398131 -1.9688323432 7.7265399095 0.56760244494 -8.5736915613 -6.5006684038 
-4.0481721515 9.2846256536 -5.0004197705 -2.5301971385 -0.82978342306 7.4907094665 5.9032511476 2.3248147198 -6.6538596071 
2.1698994519 3.9161956972 -3.4731133739 -4.3900910537 2.9604209715 -3.90288981 -1.2734531688 -0.95820018992 0.73347537288 
9.4942155232 -5.9238277954 -1.7927023764 -7.4458076699 9.3115761234 -2.1929095091 -0.17613921404 -0.57998242637 -7.3117347697 
-4.1411363821 4.93197451 7.671336055 3.9273920481 2.2806576254 1.6573911599 -7.8187672423 2.3124474688 3.9516914825 
5.5802575136 -2.1655675437 7.3822421153 -3.6101297826 -6.4257538092 5.8365550549 -0.16229019832 2.0572172937 -3.3483552281 
-5.4344754321 -5.5722730958 -5.0391805954 5.846707017 8.8501316886 -3.9045954297 -6.3177016213 4.1762938346 -1.8858703982 
-4.5066069712 5.7809132761 -7.9194818668 -1.3944499109 1.3597911235 1.7498327653 3.5113474143 4.6607769354 5.0837320545 
-4.3763297255 -6.1597750538 -9.6395986007 -6.3258530407 7.5415650847 -9.6812257596 3.9237842574 1.8550618417 -1.8163243922 
1.9272298146 -6.1713583456 9.8076018446 5.6549929185 7.3090999939 3.2133872488 2.9796267929 -0.49255188635 1.5308191983 
-1.0110983681 1.5349821512 -0.66137482275 -0.73270456565 -0.25082205981 0.29862677032 0.10906175318 -1.2925962152 -0.48541574806 
-0.57516548315 -1.1029404315 -9.727021442 1.4701286761 1.0248082097 -0.74831403728 7.776243287 9.2040412844 7.5104070751 
2.2506956267 2.9728575358 -7.8511492529 -3.1314073276 8.4545593993 -3.68956277 -2.4345853362 -0.36539350635 -0.21916192952 
-3.0037141273 1.2340836657 2.8417858517 2.0495060257 -4.5931823483 -4.6126362752 4.9699280914 -0.14170472933 9.0468591013 
-8.2915409106 1.6800596 -4.7471688909 3.9513431636 7.6664481524 6.7550061344 -8.0839238771 -3.8347865414 -1.6448291412 
-5.0729000513 7.8649874783 -5.7041757595 -3.5013186832 1.5568464349 6.8431436316 3.1175435686 4.3744660023 3.9890114599 
-4.3003684475 -3.4323062735 6.2596828556 -4.8365713353 -0.32498673606 1.7730237756 2.0111797666 -1.4170932096 0.41802855713 
1.2406907128 4.0862829972 3.5420650501 6.1512089709 -7.8616939523 4.086744579 -1.4805882379 2.2980905468 3.9844313527 
-2.5127499109 -9.5553516891 5.9458027721 -3.2434036004 -8.637917364 -7.0850431601 7.4452498509 9.7911807422 6.5636214214 
6.3559147129 -8.6796537849 7.4412521664 -1.0254950636 -1.4313871753 8.307747358 2.0635938438 -1.2198918336 -7.0717702078 
0.44571993676 2.8935952046 2.7846149349 5.0573272735 -5.2925586459 1.7648365371 -2.9160754049 -8.6949263833 5.4499616536 
-6.421495406 6.4103954733 7.6531972582 -8.0942473516 -2.8008694424 -6.5460946133 9.6958268379 3.0557058229 -3.2715879379 
7.3399327554 3.6486776166 8.1062852327 -8.2491718609 1.5042978815 3.4191383262 -8.4760413837 -4.0237029285 -5.0185711668 