# vtk DataFile Version 5.1
vtk output
ASCII
DATASET POLYDATA
POINTS 1244 float
-7.05607 -1.9502 0.0247181 1.05167 4.40042 -3.42973 -1.00855 -3.28059 -1.12645 
6.77076 10.2585 5.58193 -1.39756 0.0260998 -1.01725 3.88375 1.52385 2.08779 
1.79447 2.62298 2.70053 2.5485 -0.363239 3.59856 -1.78808 -6.12233 13.7766 
-10.8652 -13.1563 3.31537 -11.343 0.531433 0.968447 -10.194 -12.348 3.47065 
6.15062 10.4199 5.5296 -9.87119 -12.327 6.7565 -11.6743 0.120675 8.35993 
-11.502 -14.1513 8.75331 -8.69201 -7.76504 -1.26102 -3.834 11.1506 -7.55912 
-8.20174 -9.30671 -7.41318 -6.8405 1.45089 -6.79987 8.75628 9.42184 8.7688 
-14.4448 4.87865 -14.0654 8.35209 0.988654 8.47483 -7.364 8.04377 -7.27356 
-6.57641 20.6592 -6.98637 -10.7248 6.37171 -10.2762 -13.1011 13.6606 -1.07301 
-6.32194 6.26392 7.81326 -15.9236 -1.02257 6.82062 -9.08768 -7.86141 -1.44653 
-19.0842 3.6957 4.9159 -9.22306 -8.12276 10.6968 -17.1133 0.00581454 5.66892 
-7.60244 7.40066 -0.498885 -12.3021 13.1714 14.4506 -10.2449 2.90294 16.0038 
-13.7927 6.56449 1.08999 -5.3769 -0.835135 6.93307 -14.1053 6.39989 -4.13341 
-17.1563 5.81609 16.2909 -14.8781 2.4018 -5.45489 0.402243 3.04242 5.72912 
-12.2149 -0.388102 7.02602 -13.0412 17.3267 8.03338 12.8927 -11.9185 -0.190953 
1.5332 -13.381 0.351057 -2.11779 -9.57929 10.2527 -6.43268 -9.50436 0.756232 
2.77019 -19.6236 5.30428 -8.27909 -9.21007 10.3453 -2.8094 -14.6169 2.13479 
7.72169 -8.53872 0.0736449 13.7102 -13.4866 12.3804 12.394 3.54646 -14.1775 
0.852501 7.89792 -11.5852 7.97501 0.841939 -4.09514 -4.44755 6.10721 -14.3014 
14.8055 5.48607 -18.2966 -4.66172 3.26135 -14.0034 5.61621 2.43886 1.0214 
6.4134 -0.537724 -12.5254 10.1768 17.1154 -11.986 4.4831 8.14886 15.7208 
-0.622469 -1.1887 9.76836 -2.37925 -0.51618 -0.93198 5.933 5.83883 7.54958 
-6.46406 -4.57195 3.9968 6.40193 5.57327 1.61948 -2.20229 -0.133902 10.5001 
0.437692 -5.15483 1.40571 5.61879 3.24756 21.871 8.90025 16.2734 6.66599 
-2.47906 9.6983 -2.43192 6.79209 3.89592 6.96029 -3.74415 3.20318 -3.76514 
3.16993 19.1663 3.57107 -1.93184 1.17688 -2.32301 8.01684 6.28069 8.08742 
1.38123 -2.60402 0.716484 4.27064 20.2986 3.81906 -5.46321 -11.1686 -10.3194 
9.81515 -4.51296 -10.8955 2.11297 -15.7737 -7.776 2.69412 -2.61239 -17.3542 
7.93482 -16.3203 -9.74167 8.12549 -1.4023 -16.81 5.62582 -15.2013 -7.39642 
13.5956 -2.65018 -15.1026 9.30278 -14.5589 -8.63769 -2.72426 -14.8155 7.9739 
9.7341 -6.34067 13.8021 8.01412 -10.7729 -1.1759 11.75 3.82834 10.6032 
4.7338 -13.1324 0.525522 -2.01903 4.34242 10.8685 1.37029 -10.7756 -0.930886 
-0.774322 3.26941 5.37096 9.29918 -14.296 9.9776 0.61439 13.5068 -14.6233 
9.37683 1.55313 -13.8502 0.70859 9.81746 -3.16682 5.40899 2.20719 -14.6924 
4.91794 18.3959 10.5163 4.21619 2.09398 -15.0396 8.95923 11.2598 -2.74877 
-0.903655 3.94246 -11.473 15.352 9.30111 -11.962 4.65008 -4.8214 16.4122 
12.3526 -0.377365 1.04635 2.82713 10.7874 7.33412 7.79928 -3.73696 -3.86915 
6.31959 -5.85037 13.0804 1.86142 -2.98243 -3.20962 6.71617 11.0901 6.17246 
-0.587782 1.4392 3.5807 22.3671 3.32719 5.69425 6.53616 0.0858704 3.76441 
-7.90186 -0.188599 -0.748168 7.45102 6.55734 9.50519 4.46607 2.92503 -3.53434 
-4.84608 6.60196 1.39851 0.390902 8.72689 17.6429 -0.823656 12.0168 2.7555 
-7.42521 0.235406 9.96882 -8.98881 -0.256327 11.6974 -0.995548 -3.42217 -5.11026 
-11.3167 4.23972 0.531868 -5.82709 10.0698 7.79391 5.19754 -3.37548 1.29515 
4.9359 5.60411 12.9733 2.44491 3.61283 10.1367 2.71374 -4.35283 13.0199 
2.32929 -3.3417 -3.0102 -1.42878 4.17925 3.07934 -6.25285 -1.04184 13.8116 
-0.34971 4.90985 0.915463 6.64909 0.484996 2.67936 -7.25638 7.31042 13.561 
-12.7896 7.99881 12.9427 4.53209 16.4418 7.63816 -4.72872 -5.19577 10.7506 
-5.54527 -1.97829 3.13844 -4.57863 8.59916 8.60867 -12.2328 9.0966 0.804714 
5.65376 7.38823 -4.11794 -4.71492 4.42401 10.2126 -2.61336 3.07537 8.30044 
-6.33855 -0.870122 7.70437 -6.81283 -7.15834 -0.908943 5.23669 17.3729 0.995812 
5.5569 2.68027 3.123 8.36499 8.84831 5.10436 5.45815 12.4727 -1.77823 
-1.00842 1.24078 -0.273618 -2.00667 5.77858 -3.4282 6.85518 8.37403 -3.78764 
7.09171 -0.927096 9.21698 4.76119 9.29562 2.29447 -11.4131 1.42858 -4.54083 
-1.47825 4.47178 -3.68967 9.53892 3.36577 8.99012 12.0306 3.62528 9.0129 
-1.76368 4.15332 13.2938 -11.7905 5.72168 12.9453 -0.942472 7.48632 13.2175 
-14.2573 8.81607 4.97062 2.73881 -2.52755 8.0246 -5.55334 -5.39121 11.0884 
-0.67641 -7.5733 10.326 1.76414 -2.93388 1.85051 -9.13994 0.523208 1.67264 
-8.63018 0.643732 8.00961 -0.761844 -0.822566 9.52977 0.0737209 -8.21083 0.718839 
2.59452 4.12275 13.9846 -1.28737 3.54587 1.252 5.57298 5.95353 17.6163 
5.91025 0.891468 5.8999 -7.49857 9.90065 11.0821 -6.00738 0.0200151 16.1986 
-1.83739 0.90413 2.79162 12.515 11.7618 10.0436 7.48467 6.57366 17.6926 
0.610035 15.1561 10.9488 -1.7042 0.523956 10.6695 4.40389 2.96108 4.9104 
0.0609653 10.0091 -1.74038 -13.1968 6.29723 -1.12845 7.13069 8.47412 14.8256 
-4.46289 3.44037 2.24457 0.990928 -3.31296 -0.030794 0.644533 11.7791 1.4857 
2.72282 3.47494 8.87766 7.03675 5.73446 10.2943 -3.15158 11.5831 4.66066 
-1.59635 13.3936 15.9587 -0.812005 13.0304 -2.42716 2.34199 6.48362 14.3088 
9.83535 2.37826 -3.3336 -11.0348 -0.237614 1.25077 -1.27208 3.82889 -5.17732 
5.45621 6.10865 -2.91692 -5.26893 4.23931 10.149 -10.3118 5.79714 3.97023 
-1.33792 5.35548 -8.24701 7.42597 8.0466 9.99631 -0.162039 5.99187 11.6265 
-3.55474 17.4355 4.17234 -12.4332 7.34741 0.348393 -2.84418 5.09291 -5.3506 
5.15726 11.3645 -4.49194 5.36527 2.17246 2.17023 -6.48934 15.1183 -2.38838 
-1.11533 -3.30502 9.66586 2.122 3.04482 -0.485228 -3.08672 14.0124 -2.48945 
3.61724 8.15387 -2.60135 -0.871362 3.84703 -4.91623 7.2907 10.4486 8.89622 
-3.2352 12.7736 6.30347 -11.7374 4.89731 0.181762 9.45142 7.35581 -4.66862 
-1.68742 14.1445 6.71071 4.51601 14.9351 0.506186 -5.7215 9.1098 8.50915 
6.28656 13.1398 9.72858 -8.27808 10.9173 10.1729 -3.95298 -4.63928 4.42014 
-6.28825 14.1658 -2.59789 0.138629 8.00666 10.7685 5.31471 0.236941 -0.958342 
-3.99239 -0.222082 -2.27285 3.99099 -2.4597 8.49595 -4.95455 -1.65117 10.6989 
-3.60158 8.59759 18.6354 9.64886 4.86292 8.08304 4.92657 10.5697 2.22316 
-4.75713 0.897751 11.2593 2.096 16.4598 14.0345 -4.16129 15.9079 4.48001 
11.5681 7.0512 7.54797 -7.03699 10.431 8.51902 6.1652 13.3773 9.489 
0.202665 13.6435 -3.40556 -9.11104 4.74689 4.05666 7.34591 1.81511 9.91554 
-0.60705 4.00798 -8.88997 -3.1246 8.47565 9.64933 -9.56872 2.71281 2.72365 
-0.940656 10.8865 10.2049 6.27247 5.62356 -4.20976 3.98427 -1.80025 -0.674295 
-5.48031 0.748868 2.28182 6.19547 -0.434759 -5.13242 4.86435 -1.01807 5.79059 
-2.83283 7.51242 3.91763 1.12149 -7.72115 11.5599 -12.5497 3.55491 8.22207 
1.00683 6.80338 -1.74452 -5.92352 -8.22848 2.94381 3.58465 7.28158 5.1667 
2.29611 -7.77509 -0.329054 -5.71551 5.78014 7.43031 -2.10424 -6.73412 1.57324 
-1.66021 6.16641 -5.91427 -2.82567 7.40231 -1.42383 -4.95846 10.1985 7.59625 
7.38781 1.23217 -0.153615 -0.535984 -3.67718 11.1405 -5.94291 9.30057 5.65956 
-1.7477 8.53574 18.6604 4.33607 9.26476 2.46995 -1.20311 -4.9554 -1.67638 
-11.7814 -4.58516 5.10939 -9.16269 6.21061 0.913441 0.978851 -6.43358 10.7892 
3.63124 7.67104 5.46122 -6.79162 -4.7982 6.81391 0.935425 9.19921 9.58034 
3.98526 0.774407 17.7287 -2.84145 -2.17845 4.18609 6.41916 0.693746 7.35496 
6.47059 -3.34873 14.9266 -3.79168 7.13064 2.24462 6.8947 -5.09868 7.51523 
-3.50459 -4.61899 12.811 -9.53025 -1.3715 3.27328 5.59737 5.69475 0.32442 
-1.29438 -3.61725 13.0582 -0.94519 6.56708 13.1595 -4.22228 -4.54748 3.44637 
-5.41655 8.08796 7.532 -3.87667 1.24521 -2.46102 -5.08452 3.7743 12.6242 
-14.1308 6.69035 4.48257 7.69098 9.01762 4.61407 -2.58593 10.4443 -1.36138 
4.6579 -3.54907 1.44069 -6.92231 4.35623 -0.966448 -2.49746 12.589 8.23291 
-8.60203 6.14756 -7.18556 11.3486 0.113813 0.133473 -2.22658 10.115 13.5193 
-2.32758 -1.39133 -2.72171 13.5258 -5.4504 4.03198 6.93274 -1.91002 -1.83181 
16.0189 4.88736 8.63884 -4.14268 6.49721 8.80941 9.18832 3.67707 0.00472395 
1.10939 2.65606 10.6565 9.50317 8.40877 0.697605 -1.89473 7.84662 3.99279 
6.22445 2.33504 14.0528 11.3925 -6.12043 -0.486733 5.21242 2.85863 6.75048 
15.2121 10.7715 13.9015 17.3211 -3.67727 2.56576 14.9286 10.3856 12.7472 
5.32609 -1.39877 10.4152 7.7751 -3.76834 0.806048 4.63827 -0.136667 9.01306 
8.33523 0.561904 -0.152857 4.18789 0.075122 14.9277 9.1615 3.09054 -0.62733 
20.6191 2.88044 9.24588 2.60165 15.7232 10.8087 9.62577 7.11795 -0.96671 
12.282 17.8276 10.997 9.11423 -3.5964 5.94608 6.19486 -5.07853 4.60467 
5.04506 3.06473 8.84521 1.40981 4.14116 0.023592 15.1541 2.57602 0.424821 
13.4676 -0.640316 4.24328 13.2291 4.73867 5.19198 6.44533 -5.17443 5.14685 
7.28359 -4.58779 2.03314 10.7515 15.544 3.39655 13.6331 19.2232 4.36071 
3.42596 15.9428 3.14899 11.5089 12.3128 12.8045 3.52943 8.90506 8.4739 
7.62739 7.79011 -1.44321 12.4501 4.02202 -7.57218 14.0568 -0.428726 9.08043 
13.8489 -1.33867 8.30092 1.37655 -1.90689 10.0789 7.95754 6.9147 -1.40971 
19.2493 3.89771 10.0284 20.4245 3.97596 6.67725 8.36377 6.70435 12.333 
0.599004 -1.38218 2.17492 0.824786 -4.92396 14.913 -3.92572 3.09571 7.09828 
11.853 -3.00889 8.48734 13.4813 -5.23665 7.33633 15.3021 -2.45981 5.53446 
0.371557 0.717483 6.93555 2.49277 0.902207 11.3871 3.13629 0.547648 -2.82906 
7.52701 -5.5273 7.49443 15.9582 -2.18223 5.52556 13.7509 3.06753 15.6951 
9.21802 3.66975 0.74206 16.0625 2.74934 17.8971 16.065 5.02467 7.47333 
4.40575 10.9414 17.2056 9.8968 1.59368 12.6304 6.43253 1.00722 1.46172 
15.2951 9.97328 1.13555 13.8955 6.41089 18.5783 13.2441 13.356 12.6067 
3.73652 8.87916 14.8436 -1.9527 5.07914 6.01472 11.6591 9.40695 1.16159 
7.21958 -2.28352 12.7239 16.2375 11.7749 18.0557 7.86572 7.62022 0.340089 
16.9532 1.297 2.44022 7.8009 15.764 4.2625 11.9414 3.99005 13.5865 
0.515181 6.09082 4.6427 10.0019 12.7875 11.6709 18.335 9.80809 7.19535 
8.57673 12.3428 -0.0569083 13.5558 6.76807 16.3749 17.8873 2.07434 -2.30643 
1.37148 4.80484 -0.221324 9.98635 5.38562 -6.28935 19.5521 4.43699 1.0289 
[...]
CELL_DATA 2484
SCALARS scalars double
LOOKUP_TABLE default
-2.0505891946 -6.3341070351 -7.1878509493 -2.3298373218 2.683299694 -9.5885601714 1.6946591432 3.2815976985 -3.5231135827 
0.30046687735 1.5305675277 3.25977709 2.0826134662 -9.6287747633 -1.1213458523 -3.353984922 0.95842739636 4.8034405168 
4.579150139 -7.0395283496 3.4598847133 -3.4571156698 -1.7172444626 -8.1828403923 -7.9770598778 8.5698249363 7.4884537354 
-9.5620712917 8.4544721527 9.1040547844 8.3322351785 -8.3481765524 -8.4236568645 9.7932282607 -9.9810373201 9.8919031159 
-6.0151029055 -6.356284985 -7.5873510361 8.1997359914 -4.831030172 4.3555869943 0.45823856112 -0.86712819051 7.2317954333 
-9.6639498594 8.1153843414 -6.3179660562 -3.4104288986 6.5994135255 5.1473805091 -4.5860341935 9.163142557 -2.8176131567 
0.34583885138 -5.7238947963 -6.9166792412 5.7356290255 4.0000921838 -0.48286128993 5.8419067658 -3.8228096969 -0.44799252561 
6.621083843 -7.1207098067 3.5883586888 -3.7677807919 -9.1844951236 0.91852311086 2.9634852227 5.2891601921 -8.2235182375 
9.0273761505 3.6356464791 6.736391044 -3.7882482379 -4.5112452612 -3.7780161664 9.0641077051 -3.2180596554 -3.5045891289 
7.951723413 -6.643981592 4.2965795946 -6.2339857555 6.0713439168 3.0278784477 -9.0880642427 -4.3879636286 -9.8158614152 
9.8730301716 -6.9412653305 -5.2402799697 4.9895365922 7.409272913 9.1602686417 -7.173767483 -7.7033266711 8.3544113656 
-9.1332975047 -9.8044714962 -9.2298909568 9.520883101 8.4185269212 8.9846617584 -9.5308760481 7.4191051091 -8.6354295878 
-9.9816343293 -9.9284444753 -9.5822581268 9.9057983058 -4.6521699164 9.6633237739 1.9347573872 -2.8267195035 -7.884945783 
9.6636125359 -5.7885612237 5.0903185911 0.63258923293 9.5826368328 7.2251313626 -4.6591752886 5.3825786514 4.675880368 
6.4571599788 -5.4249490866 -6.7626438572 -4.0158787382 4.9807244999 -6.8974446129 3.117346655 4.0668448331 -3.0011511479 
4.4794388892 3.910199502 -3.5830734595 0.80364754834 -7.5204110459 3.0622771419 5.8114688524 5.2495703497 4.3807995071 
6.2782638381 -3.0361383476 0.1563985554 -1.262612602 -7.9443100398 0.92997074054 -1.856805799 -3.0621429942 -2.1558844562 
-7.7517963371 9.2621869792 3.8216177587 0.65494017371 9.0010463372 9.8220606769 9.1996033048 9.8375995074 -9.8189384425 
-8.7889765639 -9.8991723392 -9.1801525558 -1.5481079223 -5.1904452371 2.239474618 -5.2058934466 -6.3303155086 1.1792561502 
-6.2367367932 2.2039366036 8.6666706223 4.0867591034 5.3622329019 0.41768917612 -9.8658977442 -0.45052851817 1.1748227377 
-1.7379004835 -9.8200860011 -5.1344609572 8.2565331297 -2.8602646449 0.42271205331 9.846554256 8.3674051984 0.15701451592 
-8.5311987098 4.3898828052 -5.969758447 -2.504438587 9.8604726319 5.9561780386 -0.56924204478 -8.5139813789 1.3763894013 
5.1119808179 -9.3019060808 -9.3594069316 9.2280735511 -5.6597500716 8.2762251536 4.0803315901 -4.2795854965 -0.95931572989 
-6.0391298123 -8.7161569854 1.4879159368 0.5166519081 6.3099602196 9.5874680579 -4.0708589474 -3.7066568748 4.7208907685 
-1.9627237862 3.6637930515 6.6913639384 0.7927503163 -5.1257949375 -9.3158118222 4.335290432 -6.052116237 1.0616245232 
-0.15518879183 1.924229168 -9.1969948726 -6.5642555536 9.6649652749 9.8717022688 8.4778387474 9.0207623725 -9.8606026691 
9.488999671 9.0606876033 7.3489262625 -9.4817020274 8.1314236855 8.9906194999 -1.3808039352 -8.0687222883 -9.692416152 
-8.9168376401 -8.5844497469 9.9346520484 1.3554221444 2.6648581304 -5.2477869415 6.9855842454 -0.51786007603 -0.44809803438 
2.9404205942 5.8546934823 -5.0917512229 -2.0884602853 4.3987334761 6.615000155 -5.5980393144 8.785960339 -7.2465451953 
4.7864369665 -4.280161676 7.3756332165 7.1036562609 -4.5609859898 1.1770530327 5.7309638917 5.3792610204 -3.452309611 
-4.9512204581 9.5480709855 -4.9162655357 -2.8076809636 -5.5430155307 9.1839570081 -3.0554167416 7.0965800293 1.569769811 
3.2986573373 -6.3234549178 0.90404901006 -1.178519222 -7.3599169596 -7.6759714967 5.7448654966 3.6642148967 -9.3252186498 
-4.5063424085 1.3669139271 -7.202633627 -8.8465757137 3.8918949664 7.6333794471 8.1304716879 -8.7431498349 -3.682311671 
5.1002565755 5.3931849876 8.651310554 3.7370983771 -4.6064029046 -4.5208245028 -2.7408389613 -2.5562825192 -2.3947554308 
8.3061174492 -5.9713891214 -1.5484240671 1.9026291545 0.70067077913 7.5676925429 4.9076219426 -3.8828282378 -3.5430577975 
9.814634522 4.2019427769 -4.3300884271 -4.89792469 -3.1426064418 9.3783976726 -3.8359023329 7.7126283027 -2.8593095663 
-7.8706203087 6.2876037373 -5.7047963714 1.1879686742 -1.8222346638 6.7831571085 6.5034111533 3.9781352376 -0.73705224401 
9.9776672066 -9.2378947445 -7.8979167476 9.5497995981 5.4809888889 5.5337087866 -3.0624209104 -1.8651450455 -2.2306047708 
4.8615203455 4.5367767629 -1.7940210379 2.4905812411 -3.8132909293 -5.155324225 5.8581881183 -6.24373029 -5.3268248456 
-3.3026576198 -3.6198268742 -8.8471180987 -5.4901610275 -5.5860740264 -7.044507668 5.4464481508 1.4842403659 -4.7082546234 
-9.2447865817 -1.7832544068 9.8728064715 7.7439617795 8.8519239663 -8.4516736065 9.0845850298 -9.6996642179 -5.7728225235 
8.2783408645 9.6042470285 9.9381526704 9.8200775332 -9.6574625509 -2.9787169804 -8.5229629387 -7.5309034246 7.5955903135 
9.7247479106 8.787817433 -9.8596076224 -9.0820507413 4.6487946267 4.3629017256 0.48753767086 -4.3222126516 -2.0295491135 
0.3697255456 -0.27275275649 2.0847216107 9.7941430187 -0.66213799766 -8.4573668107 -9.3224055027 9.1428255272 -4.2722333731 
0.013221667611 -5.1757691685 -8.3951371342 7.7744788025 0.81276230252 -4.9700558918 -2.0546317813 -2.825133349 4.4952429181 
1.1688092503 5.7251609395 7.3890866258 2.7483888445 -3.2539756039 -7.7540039 9.7495254889 2.463896239 -8.154901074 
4.3565622412 -5.755202516 -2.8034469561 4.2937801687 7.3298308939 -3.5084054946 4.6607382556 6.3444136854 -2.7791878317 
3.4652854001 -3.5391633562 7.0748147556 5.7609366845 -0.99083431152 -7.63874937 1.7582603409 2.336022784 0.3463349818 
-9.7962037005 -2.4483091303 -4.499328165 -3.7428079667 -2.5075287216 5.7717698324 6.5039476012 -9.4315375625 -6.9958387207 
9.9681650368 -9.4243617488 -7.9636261385 6.6001437983 8.1015790239 9.5534395771 -2.8512680614 4.0239274473 -3.9465370702 
-9.8547094878 -7.8079270692 3.9975000945 -6.9486616453 4.3134487365 -9.7472819389 8.464723174 6.4033457958 5.1707821548 
7.8838929599 6.8746689396 -6.9616840827 -8.842914769 -5.0764120696 5.8101111632 8.8316489379 -4.5502562468 -0.71978986675 
-1.578018581 3.5740635174 -5.6196924803 -4.0794545258 0.57218588295 0.94123214871 -6.6407458822 0.75166284322 4.9392963852 
-8.824537695 -1.3813306791 9.0705324409 -7.1914670103 -0.71794349774 3.0348905351 5.7989962541 2.4922512473 -7.6568142798 
1.7789692052 -0.89709148631 5.8650807 -9.7536595504 9.7398216891 -9.6341292194 9.0628425658 4.4907637145 2.7500027008 
-7.6685970386 5.7416452689 -8.1808291781 4.2970112056 -6.876442375 -5.3888195451 8.8097179833 -5.0571566824 2.8505487101 
-9.7449160762 5.7957462986 8.2063277204 -5.8822748708 -4.1845683447 9.0111123813 9.7746186645 -9.9624030082 9.8589047094 
9.890351911 9.2019569549 8.6438924685 -9.5966829603 9.9315899315 -9.9860393659 9.9806786221 -9.8258025057 -9.8734541937 
9.3442389469 8.0820056904 -1.2279709312 -8.861759011 -7.4476762371 6.818215055 9.7634471977 -7.0543872999 6.5006817768 
3.0756857596 1.2099595828 -6.6410705608 -9.2929547461 2.6917332625 -6.9374697794 8.4310600899 1.1931494437 1.4318756841 
-7.3675474473 4.182223732 -2.1644458413 -6.9137849426 8.7300769315 -0.63768499274 4.2803464853 -5.6869441219 6.1170158787 
5.4656098063 -5.4392400275 2.7951830907 8.5378043728 -5.2122178534 5.5718288839 -9.3190719079 -9.2083886914 -3.0766821261 
-4.3715863084 9.5330885455 0.36688704303 0.98389261178 -9.4968260038 -0.8629912027 4.9395838076 0.38954501879 -5.7670344861 
3.7538199908 -4.4711800651 -6.4140057972 -0.93809258753 7.6357865586 -7.3066811976 -8.9194896398 -9.2401990466 9.7588477025 
-9.7464404142 4.268011789 1.0005638671 -2.0196623808 6.5089790822 -0.26676307342 -1.2132166488 -2.7032333593 -0.15356501933 
6.4347754822 -4.863622714 6.5592987855 -0.57727716871 -5.657501886 5.8098846864 6.1081315577 -4.1598875379 1.2546583612 
1.5901744818 9.9334487801 7.1259713169 -6.775785884 -3.5595748272 7.4179512737 -0.075784665803 -9.368544653 7.6901343259 
1.8587635925 -2.8719466288 2.9885696316 0.35589701867 4.0254603824 -9.3844686376 9.1666065217 5.053477809 -9.4302308575 
2.1428144524 -4.7392474399 8.5985005283 -6.6861992506 5.0308052809 3.5180459757 4.9875892441 -3.2493636196 -4.6945184538 
-1.1166823683 9.5968289193 1.6482208025 2.995533532 -8.3857381537 3.9752484709 1.0495496329 -2.8312597064 -3.5191682007 
3.1153985901 -0.86177714076 5.4954396908 -4.822665743 -2.9242774834 -7.1410724752 3.0557976639 -2.7034455345 -6.8694897533 
-6.8059830442 -0.033292693006 7.9366376722 8.5993968072 -7.7627041663 -9.9950981569 -9.87792466 -9.9655748389 9.9749890857 
-9.7300363903 -4.1312192623 2.4013376733 5.8342228683 -8.3867988726 -9.4999002488 2.8845442439 8.1579067159 9.5787446989 
9.9495329138 9.9275537149 -9.905455449 -7.2969986272 -6.940541937 7.4990270106 -6.9207957734 -0.74946361704 -9.6038884718 
0.59550841819 2.1512297308 9.1354606844 9.0034753903 -8.4423412935 -9.0518958531 8.7977998182 -4.9538068574 1.599022449 
4.862293114 6.1778243239 3.3486743387 -0.8382479228 -2.7099465522 7.7960746264 9.9253763588 6.2122919423 -8.9956001802 
3.2895729059 0.83434459749 -6.8215439871 -5.9116991616 -3.688190914 -1.404638905 -4.1475273581 1.0897883574 1.7601532157 
-7.3422594472 7.4486899363 8.8642016498 3.1671909382 -2.0298564287 3.4804021165 -1.7351019547 -7.4858758255 5.9599927056 
-0.054286306175 -1.2076959142 9.8255925706 8.8815241039 -5.7284615852 -8.9337880741 -7.5900480073 8.052688608 5.3974603972 
-6.224350983 -3.7921996178 -8.4772281928 0.68346821215 6.4259344476 3.4420039745 2.4233500475 2.6121232474 1.4702707828 
4.1279911389 3.5400358553 9.5169873386 -7.5242609998 4.8562705884 5.2062602318 8.7037191626 -6.614923626 -0.99760715876 
-7.3456670495 -6.4115377812 2.4170013646 -1.0991802922 -8.6237950265 -0.041287316806 -1.2142296154 -5.9304703247 8.8164819228 
3.0271575742 -8.2450147373 4.0989139663 8.2962644186 -8.8012153282 -2.0371599394 2.7251326163 -8.9654564901 -4.9346655686 
2.4224138275 2.6394286144 5.4595629395 4.0001114669 3.8648003224 -7.900625261 -0.70324605033 1.765565769 2.1596732899 
-8.4920364085 -9.5912358912 -4.0614581998 5.9435846293 4.5800868216 -5.1536307045 -5.4772042046 8.0592589601 -3.7717744871 
-1.3930037547 -1.8309789306 1.4327347287 9.6969759186 3.0646377504 8.874854837 -8.850540231 7.8153645054 8.7624653934 
2.76516487 -7.3655902763 -9.9953637741 0.05794557119 0.24322808792 2.3537122233 -8.0575827285 9.3557053579 6.1068246211 
-8.8477948133 -9.9421142986 -9.8271143469 -9.6722039725 9.9582882145 4.3830525661 7.0114672138 -9.4346620434 -5.7377040485 
-9.6149149621 -8.8606370164 9.8144977948 9.4079334985 -0.97477147311 -8.6864148323 8.5914309132 7.031551489 5.8378781007 
-1.2535373241 -1.4658322114 -5.4092448694 8.9833469956 2.4579088139 9.8635656406 -8.2274919137 -2.5945707163 -9.250094589 
-5.9434951409 7.3665404243 9.2195524409 -5.9734319581 -2.8480377943 6.1624686745 -1.8018822532 -3.8101731719 -8.9000444863 
4.7679926318 -6.056436727 -9.1232364281 -2.1138256105 4.5395323257 7.9782874509 -9.2532789384 0.49300459888 7.863287197 
-2.3950913778 -3.4976753721 1.8217493318 -1.7776821831 -2.0331776786 -2.4244346726 0.94136520501 -3.1291428905 -1.8709984861 
-6.774880542 0.096770638524 -0.90968601537 -0.68054288971 0.63024693289 -7.6680996325 -2.881572914 0.91437213095 3.3541016973 
2.0942349959 -0.21174155653 -2.3024486873 -1.1004130788 -0.72430698759 -7.4740237942 6.2830397856 0.033648343869 7.4512746241 
-9.2913307258 -4.6265036333 3.1006938235 3.0787181942 -2.9737806192 4.8530018505 -0.79939505921 1.2426174914 1.226986729 
-9.2806777621 3.5709133787 2.0228423241 5.4086931081 -9.669486806 -8.056492837 8.5505233145 8.1952499549 8.8399119435 
7.5769322869 7.3220650927 -7.7101347875 -7.2447017297 -1.1070828422 2.4416797301 5.423738929 0.85942863091 1.4827515198 
-3.1728122475 -2.309407454 6.2406279754 8.9005674239 -3.5957136725 -5.9873067327 5.8924432353 -0.83380370232 -7.8289288267 
-0.29177160841 7.305511581 0.21723113844 -8.0156698781 8.3295685876 4.1090445117 -4.8885280218 -8.6530608029 1.9759767382 
-7.3857149697 -1.1967771991 -2.7967080491 -8.0990459447 5.9905165405 -6.9625799072 7.9961425164 3.5931880559 -3.098751305 
2.2555429865 7.0026479157 7.1934181442 -9.1521795833 -9.0149096481 8.3730142138 2.3487426939 2.4668948501 -0.82540691294 
-9.411265663 8.2373899279 -7.1841277745 6.2311106889 -6.6263259467 0.89593321125 -2.5257383734 1.8661692337 -2.6336260436 
2.0437227234 -3.48721693 -0.68447320604 3.6060995229 -3.7831060504 2.6136088948 -0.76061740287 3.2650124265 0.0058687681682 
2.1639846458 3.228631043 3.4403523729 -3.2204482842 -0.56368227156 -3.5636870418 -4.2533181346 6.2281223498 3.7831014794 
2.9506108674 -1.5883837641 -4.7067572216 2.7831740514 -3.3249564464 -2.6097152977 2.6101636385 9.8300919965 -1.9715765527 
7.243258788 -8.6783424861 -2.4939301446 -8.0498123446 -0.64645587493 7.838754118 3.5266832572 -6.9942469823 -1.1420370309 
0.24777748286 -5.1609507793 5.6072783832 -8.4320702903 7.2236266065 -5.1433384517 -8.2245133946 1.7234458486 3.0353661979 
-0.47840920831 -8.7286665007 1.4140711132 -5.5133709101 -1.3374634602 -1.7431110379 2.2220606653 -4.1192850266 5.9902740894 
5.9653746836 2.3011715448 -0.36083843968 3.4351268695 -2.756507409 -0.85189971068 -0.91753421291 3.5673725172 -0.93392729938 
-0.413033182 -3.2545162596 1.600065359 -8.8299642266 2.1207993012 1.7671216385 1.6276081283 -1.7948223584 2.0991641403 
9.3561937939 1.2220174193 -9.0366098804 0.42717944897 -0.39219379512 -1.5954700177 -6.5511561776 2.7632083038 -4.8223933054 
-4.3083325578 7.3912514208 -2.6771498165 -0.52105080806 -1.5099989176 4.9274106808 0.46277140392 -0.44320888995 -4.1300981967 
4.4905032198 7.4174362663 9.281315266 -4.4954511338 -7.6529949038 5.5802831206 7.7083078536 0.44274725917 -7.5280425409 
-8.6457888556 -7.1256638492 -7.371051342 6.9207172421 2.0899433812 6.3751035955 -9.3388554049 -4.8540023362 4.6683715163 
-6.7115637718 -0.49407597285 -6.6924455143 7.5172176292 -5.6463850038 -2.9995686524 7.7619445843 4.7601277582 7.6326195783 
1.2895768638 -7.7682046714 -3.8044774565 8.791269091 1.4945781019 2.8379475112 1.2011694433 -1.199228032 0.55355270025 
0.47496745963 -3.3474489976 3.9215965151 5.9605065458 -1.8351282738 -0.55652225682 -6.572627906 -1.3661646212 0.82740498729 
-2.9973649369 0.35461349492 -0.54316523831 1.4606699356 -1.3473610367 0.13009298824 -7.3626443871 0.18888364284 -0.5612949602 
1.6227840474 6.6017508477 -0.60764182683 -3.4228132474 -1.4253259097 -3.3375101575 3.1028176457 -6.2469871262 -2.2845341075 
8.5034716008 -3.0872127838 -1.9187767732 1.3169962188 -5.7827801227 1.5563100017 -6.3748268881 8.5054806207 -5.278334954 
3.2504388613 3.5498696904 8.6389503179 2.6799581198 -9.8787715465 -3.4916643927 1.4491393767 5.8779700248 0.18096010554 
3.1633336161 0.28267630779 5.7234435037 -3.7444971852 -2.1253245546 4.132067441 -5.1572592428 0.10121252106 4.0577735448 
5.696661187 5.431965674 -6.5538225032 -5.8296029654 0.283540452 -5.1181712756 7.9469402119 -5.1048377449 1.9284584973 
-3.3969544571 9.7588874652 4.6189213619 -5.0259448634 3.0921803375 4.1623862937 0.34939923099 8.1596081793 1.3898064282 
-8.1552116909 3.1131572316 4.30622181 -4.9062346831 -9.7783880387 3.7996478284 6.6091949354 -2.8192160875 -6.6964906338 
1.1610777434 -9.4710027612 9.0747122748 9.415493332 -4.5158053121 4.1265879969 2.5096753332 2.9357186891 0.086396875065 
7.6396325987 -3.2887738281 8.2778496602 -7.3335274723 -1.0149870487 3.3003749793 -3.3993246612 -4.2751735917 -9.9006319155 
-4.1993046403 9.0846893763 1.103946081 -8.3330690184 6.8541836406 4.3882809341 -0.85567826727 5.7965128369 6.311240294 
2.8224990589 -0.003948607689 -0.87116262387 -7.3659757116 -4.1026771472 5.7873215119 5.445160569 -1.6688293906 -4.4963021549 
1.4301373165 1.8473023568 -4.3409515731 -3.3386760737 1.8638482456 -3.2515186819 -0.98811289205 2.5226027912 1.5638977543 
2.4987232628 2.4695504038 -9.5791366659 -9.9607560525 -3.6727393111 7.4773474035 7.6310125132 -8.3367758992 -7.7133220035 
3.9060441141 8.2983208507 -7.1269053815 2.5049839137 2.5144490273 6.5687816679 -8.9667305086 5.4536417821 -3.0062785607 
-7.4541929902 1.2911501451 -3.3234651163 0.00050214944909 0.25889467891 -2.0385645888 2.1530101317 -1.228257119 -0.18710626938 
2.5841854544 5.0442221017 0.066824728022 -6.2209048295 9.2760742991 7.8932438042 9.2668068493 -9.9720886187 -0.95776625312 
-7.0623881063 -6.0564749287 7.6940140276 -1.5103188608 4.1776227035 -0.86170008511 -3.2727005225 -6.0908566132 3.4654432177 
-0.35232962514 -7.4416702314 0.56052157667 -5.507950458 5.137336053 8.2314150334 -1.8299502556 -4.156395923 2.1446121931 
-0.70379294492 2.4854938455 7.3824636769 6.7693503397 3.7670527819 -5.0232334723 -3.108927096 -0.96632148277 -6.3384773515 
3.1299531088 5.4772897197 -8.4800009957 8.4812548436 -3.2739221156 -1.7198983283 -1.304393981 6.391949878 0.79307575422 
7.1626335853 2.4900502924 7.5663294659 -1.7330410084 -1.0272090441 8.6725585503 2.3973977528 -8.2084459703 -5.4942180039 
-1.7904875274 8.8100914997 -3.8306702762 -2.3137478491 -0.58566973555 7.7575910733 5.9972011097 3.3891947052 -6.7949949816 
3.9971453419 4.2312715373 -3.912346232 -4.3632299288 3.3389145568 -4.3073518004 -2.2259852324 -0.93880178361 0.69907429534 
9.2977554432 -4.8449652213 -2.4398673555 -6.8177549575 9.6148389667 -3.7875224272 -1.2559733204 0.91394824495 -7.3526697338 
-5.0786229121 6.0319671219 7.6984848841 4.7348400881 2.6371792225 -0.95390134849 -7.3327283613 1.6805319264 3.6530326877 
5.5322851353 -1.545891796 6.8793795485 -2.4794742327 -5.8507102185 5.3203194846 -1.305560378 2.2432349142 -3.0127369646 
-6.5143707814 -5.4035229855 -5.4297303919 5.9239987734 8.6612295897 -3.7970336774 -7.2126262248 3.5948960231 -1.8583562688 
-5.2526285082 5.935566622 -9.2173448129 -1.5571333239 3.4738648321 1.6134949511 4.3556312613 5.8700358363 4.7649870902 
-5.6475317316 -6.7901027287 -9.7301920144 -7.0915851375 7.0601217345 -9.927962992 3.0485270753 -0.19416736765 -2.2182487277 
2.3959861769 -6.4990450856 9.6563715711 6.0978733348 7.7780703745 2.5669437874 2.9020262211 -0.92844152844 2.3751907552 
-1.5359564978 2.2612237229 -0.9097556643 -1.4198349296 -0.82594741526 0.77402814869 0.54456515751 -1.459870599 -0.87830690393 
-0.71598113801 -1.2409912283 -9.7037930069 1.9080135585 0.50731004162 -1.7412960973 5.9665933481 8.6835968466 6.9974758823 
1.8773997332 2.6993091416 -7.3253461188 -3.1207051042 6.8632740161 -4.0673192565 -1.527711126 -1.7930265195 -0.82192937973 
-3.1312282231 1.8026960842 2.9008453417 1.5484612429 -4.6279423518 -4.6406077038 5.0226639354 1.9099456496 8.317695706 
-8.7010961356 1.4066040386 -4.8942458057 3.1432055459 7.7674751329 5.6782835905 -8.4580856222 -3.0321228761 -0.91592051288 
-5.5281193551 7.8688612897 -5.198524587 -1.9335280574 2.1970633281 6.0667332097 3.6041057194 3.5759019475 4.400750655 
-4.9361893118 -4.089954531 6.2190410332 -4.5694702036 -1.0451913895 4.2270983976 2.6660447417 -2.2287738576 -0.61893077837 
2.3037558498 3.6533538007 3.4172528167 5.9132640489 -7.3937475072 4.331403573 -0.9952398344 1.6787362321 3.4882602074 
-0.38694485165 -9.4672276061 4.5680175162 -4.2142931338 -8.9518910987 -6.781129576 7.1921365142 9.7328815814 6.7789972075 
6.0568304478 -8.5046070144 7.5531904592 -1.3812900848 -1.7990254003 7.6858552652 2.0082857806 -1.2548461927 -8.1992113219 
0.19581703043 2.8862162181 2.34008032 5.0673286268 -5.5418873338 0.75306840919 -2.5150360564 -8.861344246 4.8888297105 
-6.6208786666 6.1821896076 7.7875598195 -8.0825305293 -3.2065005436 -7.4591471392 9.4425149003 3.9999089126 -3.1945617125 
7.6033336087 3.1964039911 8.0393559495 -8.5152532714 1.5611473366 3.8173906369 -8.1947839684 -4.3159267687 -4.8453149499 