# vtk DataFile Version 5.1
vtk output
ASCII
DATASET POLYDATA
POINTS 1244 float
-8.16698 -1.94608 0.385653 0.356308 4.57853 -3.84818 -0.686848 -5.66614 -1.37827 
6.71626 10.417 5.86239 -2.73215 -0.329192 -1.41612 3.52758 1.61329 0.984779 
1.58813 2.43035 3.09232 1.72375 -1.37202 3.0321 -1.84587 -6.32123 15.6343 
-11.9702 -14.8955 3.24952 -12.3426 1.629 0.396114 -10.3195 -13.0142 3.87981 
6.46893 11.7123 5.6909 -10.5294 -12.8348 6.80502 -12.925 0.794577 8.46591 
-11.9497 -14.6032 9.142 -9.2824 -7.98043 -2.50839 -3.37181 12.7916 -7.95497 
-8.88516 -10.0048 -8.02025 -6.98015 1.31834 -6.93359 9.31972 10.6875 9.44564 
-15.0845 4.62872 -15.4423 9.63731 -0.374919 9.02555 -7.5598 7.89182 -7.49837 
-7.3808 22.432 -7.7063 -12.6636 6.2126 -11.4583 -13.5356 14.6469 -1.33496 
-6.18671 7.23151 9.6848 -16.5548 -2.1482 6.9303 -9.39962 -9.30034 -2.18967 
-20.4 4.1465 5.00905 -9.19819 -9.32014 11.3529 -17.4098 0.340921 5.24944 
-7.94635 7.79624 -1.34469 -13.5918 13.8723 15.0705 -11.2708 3.74614 17.1705 
-15.2668 7.26746 -0.416389 -4.99136 -1.38382 7.04358 -15.9174 6.98245 -6.07397 
-17.6246 5.86658 17.1267 -16.0136 1.52054 -6.17084 0.315647 2.83089 5.3976 
-13.4427 -1.6902 7.64619 -13.5165 18.3519 8.08552 13.8306 -13.2871 0.0502884 
1.24291 -14.6424 0.274013 -2.52799 -10.2654 11.2499 -7.62036 -9.25905 0.206531 
2.81868 -20.7096 5.33595 -8.9325 -9.74102 10.9425 -4.23735 -15.1161 1.38035 
8.34578 -8.80074 -1.27275 14.2592 -14.5776 12.8275 12.9994 3.91874 -16.328 
-0.662815 9.21345 -12.8146 8.21352 0.621095 -4.0818 -5.82777 6.49905 -15.3277 
16.4043 5.5762 -19.3936 -6.64551 2.48064 -15.7924 5.41088 1.93983 1.55831 
6.29151 -1.66809 -13.8781 10.8095 17.7517 -12.0252 3.80775 8.01273 16.2643 
-0.870135 -2.30591 10.5004 -3.24286 -0.266405 -1.80675 5.96808 6.03308 7.85325 
-7.8305 -5.2676 3.54326 6.07051 5.58795 1.29667 -3.98233 -0.413601 11.4186 
-0.0240735 -6.55147 1.38277 5.57131 2.42459 22.2653 8.95604 17.4289 6.92768 
-3.53186 9.97211 -3.68363 7.26552 3.70451 7.37477 -4.6061 3.01896 -4.75487 
3.21352 20.4041 3.37307 -2.99042 0.00442577 -3.31213 7.55963 5.41078 7.79331 
0.444289 -3.79445 0.359305 3.36125 21.7213 3.21237 -6.24084 -11.9679 -11.5001 
10.7787 -4.84813 -11.5021 2.1285 -17.1388 -8.16228 2.73228 -2.23759 -19.0763 
8.4264 -17.5986 -10.5682 8.12701 -1.11884 -19.3321 6.19117 -15.5113 -8.25209 
13.9009 -2.99572 -16.6546 9.16801 -15.206 -9.77707 -3.64207 -15.3897 8.21212 
10.6826 -6.90881 14.0037 8.7097 -12.0197 -2.64893 12.8545 3.71167 10.5172 
4.63095 -14.4533 -0.817678 -3.23672 3.96022 10.9407 -0.246153 -11.7423 -1.8818 
-1.54243 3.46292 5.35793 8.55423 -15.0466 10.7443 0.987518 13.8253 -15.7289 
10.5761 0.630771 -15.1399 0.334313 10.5522 -3.39916 5.92175 2.17414 -15.5186 
5.00283 18.8146 10.9935 3.9759 2.10972 -16.4606 9.49358 12.2019 -2.72484 
-2.21093 3.09654 -12.8544 15.0797 9.64174 -11.8065 5.24793 -5.3235 16.7749 
13.277 -0.855119 0.974955 3.0174 12.5809 7.86134 8.81115 -5.00481 -5.17613 
6.37479 -7.09511 13.2951 0.779983 -3.98616 -4.49137 6.21983 10.8552 6.08412 
-1.53993 1.21844 3.3995 23.2944 3.36757 5.58976 7.27048 0.204862 3.66778 
-8.68734 0.111256 -0.125522 7.60403 7.05969 9.51175 5.13822 2.65979 -4.60681 
-5.09343 6.20566 1.42072 0.0927136 9.48845 18.2651 -0.600394 12.4189 2.50208 
-8.40389 -1.03467 10.5014 -8.80557 -0.747644 11.3065 -0.551464 -4.46223 -5.32516 
-12.0881 3.98868 1.03093 -6.86442 10.5721 8.6829 6.53054 -4.08127 1.43058 
5.33235 5.65215 13.4313 2.5096 3.61127 9.83865 3.00164 -4.50091 13.4334 
3.25292 -3.50417 -3.76737 -1.38912 4.41546 3.26131 -6.47736 -1.55477 14.0914 
-0.334332 5.00206 0.275951 7.20983 -0.00349604 2.19941 -7.37555 7.40446 14.0703 
-14.4017 7.9453 12.9061 5.17757 16.751 6.70345 -4.72202 -6.8104 11.569 
-5.44864 -2.39378 2.62677 -4.78254 9.63822 9.20789 -13.3434 10.506 0.727856 
6.15202 7.22245 -4.76301 -5.52997 4.01 11.0833 -2.9413 2.49704 9.16885 
-6.7771 -1.11453 8.21621 -7.07061 -8.45611 -1.07659 5.97969 18.3667 1.26188 
6.45842 1.89221 2.46978 9.46206 9.14719 5.41573 5.84887 12.6041 -2.5735 
-1.61925 -0.351654 -1.52925 -1.71091 5.65591 -4.54812 7.14568 8.87068 -4.25016 
7.76812 -1.30684 9.54497 5.46451 9.74632 2.15463 -13.1239 1.5212 -5.3229 
-1.70711 4.89306 -4.96308 9.71744 3.65889 9.30499 12.4873 3.8732 10.3034 
-2.18549 5.10571 15.1216 -12.7932 5.94355 13.3402 -0.75987 8.68991 13.3563 
-14.8327 9.29518 5.1033 3.25509 -3.37135 8.35484 -5.35593 -5.64007 11.3715 
-0.417912 -8.10964 9.95919 2.17538 -3.32992 0.90645 -9.76343 0.931842 1.14436 
-9.696 1.05824 8.51793 -0.0234725 -0.3368 10.1948 0.309657 -9.5987 0.593541 
4.00948 3.66289 14.62 -1.69796 3.30678 1.09647 6.34537 6.04816 18.376 
6.39003 0.00916785 5.63024 -7.96469 10.6331 10.6392 -6.3277 -1.08893 17.2194 
-1.8202 0.267122 2.10706 12.9204 11.5876 10.8357 7.6338 6.12964 17.3411 
0.421916 16.0306 10.9568 -1.75634 -0.327182 11.336 4.18706 2.08459 4.74463 
-0.348557 11.128 -3.04641 -14.107 5.18744 -2.21617 8.3133 8.42985 14.6337 
-4.54012 3.21721 1.98069 1.16442 -3.17414 -0.655786 1.04007 12.8305 -0.0748685 
2.6943 3.15048 8.92953 7.13162 5.37591 10.8043 -3.23419 12.204 4.23507 
-1.95496 13.2543 17.3357 -0.269649 14.0417 -3.21374 2.44816 6.22662 15.1031 
11.3189 1.8005 -3.68338 -11.1015 -0.962761 1.4528 -1.83574 3.24947 -6.64701 
5.37968 6.44998 -2.23675 -5.40272 3.33298 11.1988 -10.9565 5.77433 4.27942 
-2.12619 5.03075 -9.09615 8.2583 8.2041 10.3704 -0.178825 5.87681 12.1717 
-4.00845 19.4476 4.35484 -12.4618 6.58331 0.680432 -2.96904 3.97359 -5.36708 
5.85605 12.3039 -4.68095 6.43234 1.10649 2.05815 -7.0587 15.5194 -1.59553 
-2.01432 -3.31528 10.4866 3.39695 3.32918 -1.58556 -3.39103 14.1757 -2.47193 
3.5427 8.1523 -3.10482 -0.315575 3.74226 -5.81104 7.32349 10.1561 9.12431 
-3.5573 14.366 6.6817 -12.825 4.88592 0.0771403 10.194 7.71354 -5.0916 
-2.04489 14.5587 7.29611 5.59345 15.1509 -0.884062 -6.45798 9.41141 8.99935 
6.37032 13.6553 10.9216 -8.7741 11.4486 10.6206 -4.32131 -5.35046 3.93319 
-6.99431 14.4218 -3.01459 1.05583 8.25717 12.2496 5.42223 -0.695089 -1.41778 
-4.61834 -1.11886 -3.51621 4.71598 -3.51236 9.59257 -5.75856 -2.16063 10.4292 
-3.40639 8.66345 19.3303 10.5684 4.61187 8.55049 5.80544 11.9635 1.99621 
-5.25467 0.337496 12.3124 2.75036 17.2037 14.3635 -4.68441 17.1612 4.28656 
13.0315 7.1733 7.41009 -7.19939 10.8712 8.44701 6.2853 13.8434 9.88449 
-0.53461 14.0175 -4.67449 -9.79266 4.77153 4.53115 8.20178 1.09935 10.4369 
-1.2161 4.26712 -10.0337 -3.58036 9.42601 10.8507 -10.4881 2.62409 2.85137 
-0.862785 11.5705 11.5192 7.23104 6.31768 -6.07173 4.20313 -2.58456 -0.923594 
-6.17565 0.420375 2.25026 6.53568 -0.378709 -5.14454 5.27455 -0.84321 5.77792 
-2.63088 7.51806 4.66454 1.22122 -7.68403 11.5871 -14.4949 3.62588 8.68824 
1.90286 7.7393 -2.41312 -6.28423 -8.95454 2.8026 4.54182 7.16566 5.69095 
2.17375 -8.94343 -0.672163 -6.22659 6.13525 7.5945 -2.38846 -7.98705 1.05683 
-1.58552 6.42817 -6.94382 -3.50766 7.85517 -2.71894 -5.67733 11.3734 7.69286 
8.55818 0.850903 -1.02162 -0.418712 -4.60389 11.3489 -6.47779 10.2859 5.43136 
-2.08677 9.18413 18.8329 4.47721 10.2122 1.8553 -0.58149 -5.97874 -2.69844 
-13.0437 -5.05091 5.14183 -10.1322 7.08351 -0.0339995 1.13589 -7.19957 10.8199 
4.90966 7.84079 5.23725 -7.28009 -5.23755 6.91466 1.29496 11.072 10.173 
4.3254 0.0151995 18.4535 -3.30285 -2.06702 4.19743 6.19881 0.43487 6.74845 
7.54673 -4.12222 16.8181 -4.29933 7.37474 0.980396 7.79219 -6.03813 6.28086 
-3.37214 -5.07089 13.7988 -9.35803 -2.12028 2.59677 5.54679 5.94482 -0.338027 
-1.30073 -4.02137 13.772 -0.949865 7.27614 14.7172 -5.29803 -5.64171 3.20627 
-5.68242 8.77847 7.62065 -4.3317 0.637801 -3.75357 -5.38654 3.42415 13.4662 
-15.2067 7.09575 4.57515 8.35581 10.0394 4.61267 -2.87998 10.5557 -1.94988 
5.30058 -4.45424 1.03016 -7.57037 3.58601 -2.61915 -2.86128 13.7444 9.35707 
-9.06579 6.26248 -8.40678 11.26 -0.787815 0.276277 -2.24523 10.6235 13.8974 
-2.71618 -1.20773 -3.65091 14.3769 -6.29497 4.27981 6.7777 -1.90136 -2.86473 
16.586 4.16208 8.34398 -4.9662 6.82649 9.43136 8.9007 3.6172 0.264725 
-0.663618 2.30769 11.2373 10.3853 8.14012 0.116213 -2.65038 8.02872 3.42088 
5.83349 2.62331 14.8231 11.7081 -6.63958 -1.01133 5.11984 2.6238 7.46262 
15.4125 10.7385 14.8834 17.5235 -3.7254 2.96796 15.5052 11.2092 13.056 
4.85986 -1.10669 10.5895 8.05997 -4.43547 -0.68557 3.78026 0.109868 9.3343 
8.24819 0.622954 0.0333548 3.63179 -0.377411 15.2863 9.04045 3.58574 -1.00756 
22.6264 1.77595 9.01974 1.83132 17.1641 11.3038 8.95496 6.74155 -1.14002 
12.113 19.6308 11.4373 9.48942 -5.64993 6.11132 6.74897 -6.73115 4.47669 
4.14077 2.41342 10.8464 1.55902 3.54316 -0.235617 15.3933 1.95494 0.346934 
13.5646 -1.53828 4.55592 13.5184 3.83295 5.01135 6.93918 -7.15223 5.49022 
7.07433 -6.58227 2.03115 10.496 16.194 3.81732 13.3898 20.4182 4.32975 
2.93995 16.9178 3.48904 11.2861 12.6256 14.0775 2.48721 9.06951 8.46634 
7.83734 7.00111 -1.95443 12.9936 3.82291 -9.23433 13.8562 -0.877402 8.95469 
14.1526 -2.24788 9.53319 0.356148 -2.76352 11.508 7.60381 7.1002 -2.39203 
19.0443 4.02158 10.284 21.765 4.13034 6.66403 8.34433 7.86149 13.6892 
0.36178 -0.957716 1.9228 1.14167 -5.59018 14.9236 -4.47981 3.44522 6.99217 
12.4842 -3.80783 8.36106 14.0122 -5.5616 6.95441 15.8344 -2.85031 4.45323 
-1.05775 0.905717 6.56206 1.97779 0.801504 12.3833 2.59343 0.411246 -3.87024 
7.62469 -6.03153 8.30443 16.8379 -3.04987 6.46629 14.2826 2.96101 15.3804 
9.36252 3.45243 -0.200565 17.0396 2.4578 19.3031 15.8025 5.33311 7.13116 
4.41233 11.0094 16.8508 9.75477 1.40521 12.9463 6.28506 0.0693561 0.283153 
15.3239 10.2858 0.543112 13.66 6.16121 18.498 13.9617 14.7289 13.3967 
2.40857 8.58865 15.496 -3.09294 4.87453 5.3132 11.9898 9.45204 0.829785 
7.48548 -3.63843 13.4435 16.1484 11.4624 17.8405 8.28088 6.90268 0.980664 
17.6371 2.28359 2.27107 7.72043 16.8047 3.94693 12.6353 4.34295 14.2096 
0.171734 6.6762 4.23279 10.3426 13.7149 11.9187 20.1727 9.53817 6.72356 
9.18231 12.8356 -0.351944 14.0787 7.14159 17.3129 18.2227 1.56068 -2.19917 
0.933211 5.04388 -0.719355 10.1928 5.4448 -7.09794 20.1377 4.2549 1.05418 
[...]
CELL_DATA 2484
SCALARS scalars double
LOOKUP_TABLE default
-2.3360355463 -6.1150958711 -7.2051210877 -2.0484094027 2.5758066958 -9.5291868291 1.7309065772 3.3855763698 -3.5869421157 
0.68065219892 1.4904582897 2.7227825122 2.6130888629 -9.5019531918 -1.2209978292 -2.8895863938 0.96824523801 5.4814982563 
5.1194064465 -6.7736501432 2.9824200232 -3.0666860882 -1.8138913343 -7.9536738731 -8.0224898142 8.7968015916 7.1809686646 
-9.3299285867 8.408479376 8.9753900176 8.0363811051 -8.0224779884 -8.3680047782 9.7349181107 -9.9842053748 9.8759708166 
-5.2276702243 -6.4925093715 -7.7503791966 8.1621549661 -4.7896871853 4.580267579 -0.060623658257 -0.96263544913 6.634347015 
-9.5875997913 7.9169110042 -5.7898151506 -3.2164102694 6.7470384746 5.2912628464 -4.3518209598 9.0967993114 -3.0904854205 
0.18751181054 -5.5297332192 -6.8794058803 5.4832580157 4.0261429323 -0.17812709067 5.4176279602 -4.0594773129 -0.13700541246 
6.6237953069 -6.9234692851 3.8221816416 -3.9884968055 -9.1675334756 1.0719433278 3.6981645537 5.1647298216 -8.6479428429 
8.7069028903 3.6438376606 6.9534467362 -4.0132820848 -4.8333353102 -4.0292830666 9.2386391515 -3.4034275327 -3.6282205784 
7.9162180568 -6.6046500395 4.0395247058 -6.0541599102 5.9336153878 3.1168526027 -8.8397157975 -4.6297078359 -9.7196727695 
9.7893163077 -6.8601628192 -4.9282187975 5.0026727401 7.3438918927 9.1129380016 -6.6307962933 -7.336991849 7.8989778386 
-9.0485024348 -9.5741601296 -8.7692199556 9.2801614658 7.9510146584 8.7718269546 -9.2485618781 6.8607087524 -8.249827347 
-9.9536426358 -9.9272177251 -9.5670871459 9.8950463665 -4.3384902615 9.7529726356 1.8065448543 -2.2757984106 -7.271554539 
9.7087796973 -5.1396149818 4.3671250619 0.64136205729 9.5493960758 6.9359202783 -4.2202513665 5.1772546182 4.4205005461 
6.6450061121 -5.3396810271 -6.6635994023 -3.6289417331 4.9400214179 -6.7110196126 3.4081673875 3.9634485687 -2.4897962583 
4.8956427835 4.2090367695 -3.8252224018 0.82468844596 -7.5645596442 3.2139014315 5.5010277986 5.521512611 4.1201525933 
5.8017034059 -3.6453303491 -0.057193191652 -1.280751027 -8.1627204056 1.1268308287 -1.9595273436 -2.8608926553 -2.0893303996 
-7.4527338195 9.1672080574 3.826280682 0.019590943944 8.6757510733 9.7614761089 8.7372515461 9.6192138841 -9.7299071047 
-8.4234449135 -9.8629240744 -9.1454748073 -1.6140111597 -5.0153931746 2.7179474081 -5.0735192599 -6.3537442915 1.1344208534 
-6.140157248 2.3882830873 8.6627023279 4.190472324 5.8178875656 0.15354688504 -9.8955339532 -0.50049899635 1.6626753806 
-1.8002617091 -9.9106739861 -5.3789795008 8.3493485775 -2.6257437908 0.25439045861 9.8545524461 7.999629458 -0.03887566618 
-8.484002327 4.4664404373 -6.0720197906 -1.4351114953 9.8732803573 6.0800549471 -1.0139647301 -8.6798317356 1.5065644059 
5.0164501646 -9.1577290913 -9.2504168342 9.1149437579 -5.5051237364 8.4043021161 4.3338127681 -4.3352484676 -1.0985519319 
-6.1269507563 -8.5614732062 1.6701152587 0.75841118318 6.2670902066 9.5042778289 -4.2573244328 -3.81410286 4.7564102653 
-2.3949603148 3.8493120738 6.510348312 0.30302949934 -5.2180986119 -9.1907344539 4.287989674 -6.3284159429 1.2863360245 
-0.032296023049 2.6483715137 -9.4071353273 -6.4594311055 9.6711979013 9.7947545834 8.0488079984 8.843744933 -9.8024247697 
9.3462322659 8.7967530002 7.2855815315 -9.3745997018 8.2259679232 8.9857519474 -1.9843255451 -8.2149065376 -9.6776003039 
-8.7392846139 -8.2316072143 9.8951465858 1.8911826059 2.5713203802 -5.5906404325 7.0352714264 -0.21734684243 -0.46617879852 
2.9591976242 5.2532554274 -5.0433365046 -2.3498769696 4.2776370806 6.1148140514 -5.0142024418 9.1699124863 -7.481735044 
4.4165438522 -4.2811607439 7.7542139063 7.1814791268 -4.7686649434 0.78827672493 6.3387742955 5.1278775361 -3.8832931026 
-5.3902821277 9.7613400639 -5.4660508641 -3.0313514089 -6.052489416 9.2417043767 -3.0102375607 6.9216845423 1.8715222811 
3.8590470701 -6.3491369961 1.4649847551 -0.77624462689 -7.2840858417 -7.5319523547 5.4180155454 3.6396286665 -9.3980019447 
-4.4432958409 1.1615603191 -6.950849903 -8.6780230506 3.6505816315 7.3288489243 7.5487287987 -8.6620925921 -3.1870556448 
4.9378401181 4.5916063955 8.6553251876 2.7539964077 -5.7870694648 -4.1609910225 -2.2412873493 -2.2667387388 -2.4997708702 
8.2626576411 -6.0167996414 -1.5628291572 2.214495352 0.14025052528 7.2279412107 5.4084323879 -4.0644411685 -3.4622691319 
9.8572628665 4.1956252047 -4.30099018 -5.3577999088 -3.3192954422 9.7552767815 -4.0806509698 7.7618031237 -2.1236220786 
-7.9197287186 6.1836577819 -5.6580573685 1.4219674747 -1.8005169076 6.5126409056 7.411770623 3.233454761 -1.6498885835 
9.9702257676 -9.0936608048 -7.3494581245 9.1860559838 4.869822137 5.037559472 -2.5505238414 -0.48149723979 -2.3778074655 
4.751417357 4.6656189035 -1.963490739 2.6185510454 -5.1043958361 -5.7178371002 5.7919196733 -6.5307410025 -5.3625328302 
-3.9890490692 -3.7746039212 -8.6801066607 -4.8154398014 -5.600843381 -7.1065255559 4.6977276576 1.5500100765 -4.4270218395 
-9.5197194792 -2.3268722912 9.8738754413 7.0647951433 8.4401868761 -8.1749336088 9.0293971944 -9.6300665581 -5.5266616655 
8.1447370337 9.6102277419 9.9069705951 9.8140469552 -9.6155189436 -2.8151940008 -8.5424257121 -7.5604273313 7.7507128572 
9.6343373941 8.6754333989 -9.8478014514 -8.9072553449 5.0616507801 4.5522441034 0.5255621814 -4.4645401735 -1.4908283601 
0.71572688247 -1.0545880497 1.8906153862 9.7766960884 -0.92096505958 -8.0820427686 -9.1666006107 9.1640976325 -3.869882539 
0.15245726003 -5.3119869506 -8.48594141 8.376161756 0.8220427894 -4.1459148436 -1.8193912896 -2.8738852353 4.1167379313 
1.5961812684 5.5618845801 7.3119506515 2.9163811062 -3.1223684501 -7.8887448208 9.7116472176 2.3264775359 -8.2028257307 
4.4950967015 -5.7711382401 -3.0632189429 4.6310163817 7.7743060417 -3.5432636605 5.5364179635 6.4788322663 -3.0106393975 
3.5092216907 -3.6632761118 7.3917103505 5.294614363 0.10611739748 -7.6414182563 2.4283271318 2.5897883388 0.49554996458 
-9.8024038252 -2.3928660216 -4.345144255 -3.9943358695 -2.6865444039 5.8984784681 6.6206392856 -9.4655937676 -6.9612718509 
9.9788428022 -9.3032760028 -7.9730960384 6.33470689 8.32182423 9.5816355825 -2.9635760601 3.8348930041 -3.8205874427 
-9.8525767829 -7.6429035081 4.0517153998 -6.5465293853 3.1379702132 -9.7877680349 8.2425119733 5.1112117539 5.2443983719 
7.9089043107 6.8119838949 -6.9317519802 -8.7062525189 -5.2060341997 5.7879063317 8.7521360077 -4.9205167183 -0.94377716921 
-1.2955073462 3.4099902323 -6.2566897892 -3.2644436077 0.31030235198 0.94625980913 -5.5458566842 0.46962049361 5.2625749649 
-8.6873982899 -0.69243761598 9.2084465564 -6.3889834992 -0.45411536305 2.5338072144 5.1909041016 1.848296487 -7.4573964165 
1.6391065353 -0.67237419722 5.5398377005 -9.782640711 9.7535489749 -9.6068339218 8.70736062 4.5271367661 2.3279736461 
-7.5426683794 6.2931223833 -8.1314793267 4.588667895 -6.9286645399 -4.556612156 8.8837585081 -4.7363282167 2.8268605925 
-9.5797962563 5.8633101247 7.9987959841 -5.8436552883 -4.4691326167 9.0786800471 9.6463942114 -9.9576352581 9.801864055 
9.8671958686 8.7903089933 8.3085023483 -9.4243102133 9.911471619 -9.9768258106 9.9644917453 -9.7609338934 -9.8407658674 
9.3102522226 7.7616500838 -1.2312832211 -8.6491416259 -7.0504938844 5.7478883482 9.8962624889 -6.0331080048 6.4496647177 
3.1627347072 1.2464574801 -6.5907348669 -9.4176216929 2.7641885447 -6.3014943474 8.2631033549 0.81177577498 1.0070573525 
-6.6529676871 4.3077935872 -1.8517575656 -5.9428390973 8.9833914501 -0.17954368119 4.1665196698 -5.9708193291 5.8411783828 
5.3782090015 -5.3332838592 2.2134492788 8.6411940036 -4.4639701621 4.5682974363 -9.3066895172 -8.5927794095 -2.9004677809 
-4.0879665726 9.4924033147 0.30019770703 0.56467584445 -9.2490874836 -0.46562950414 4.2336593879 0.35779286934 -5.7486730816 
3.8354502741 -3.9753083705 -6.4307507137 -1.029239852 7.7906914457 -7.1273603673 -8.2870764553 -8.7973001263 9.6259937839 
-9.6367366463 3.8900842003 0.96033876831 -2.16599666 6.6576924359 -0.21467820053 -0.86820654403 -2.4785646728 -0.42327711396 
6.3368574346 -4.5739196706 6.5636340008 -0.41372916635 -5.2824477948 5.8747068699 6.1793438925 -4.8558231585 0.53426715441 
0.56555416218 9.975920434 6.6351388473 -6.6164346577 -3.3429058022 6.7323174018 0.023033429398 -9.3897552835 7.6739649564 
1.5908093933 -3.1525389174 3.236904797 0.8611924699 3.8691430078 -9.3284776411 9.1016115545 4.9217627296 -9.3325942895 
1.4686294119 -4.7878710285 8.4058800589 -6.3602620801 5.2075295534 3.6664228487 5.1438020083 -3.4990958058 -4.7415568891 
-0.931713971 9.5595849222 1.3017354997 2.6832049365 -7.9136264783 3.8437560721 0.7323783448 -3.0594443237 -3.2634320833 
3.5378805209 -0.79680402307 4.651900332 -4.4852577488 -2.6320913422 -6.5168493852 2.7077018762 -2.2270524248 -6.8782591976 
-6.6684537031 -0.37663524892 8.0397125875 8.4612064766 -8.0371681697 -9.9690709849 -9.8333431843 -9.9702089886 9.9854370161 
-9.5475842467 -4.0522885362 2.699678448 5.1983116555 -8.4321357108 -9.4103781296 2.8242593351 8.2988403263 9.4743714395 
9.9427883268 9.8572992131 -9.8802759468 -7.4193972018 -7.102999072 7.575987695 -7.0945608248 -0.52225440823 -9.4568118323 
1.0699864636 1.7259757821 9.2593700472 8.8356627692 -8.4791002638 -9.2806889333 9.1640693229 -4.8674000237 1.455204474 
4.7859596642 6.2926626649 3.8353065297 -0.089728737566 -2.8491300931 8.2929497725 9.9461708568 6.2367234623 -9.1336654654 
3.4382998255 0.64762521375 -6.9900662652 -6.0778006488 -4.1893526745 -1.7898114831 -4.1965681367 1.4284975436 1.931710329 
-7.8276714902 7.0082225771 8.7330899355 3.169118113 -2.4744386254 3.6697743771 -1.4866269796 -7.0917436742 6.3356658043 
-0.076067134862 -1.4035942178 9.8344256561 8.6249833344 -5.5050334449 -8.6957678864 -6.9866776305 7.9022935909 5.3422523838 
-6.432747093 -4.7844170303 -8.6724860866 0.78103850935 6.6771706814 3.4361792249 1.8647363731 2.6467573181 2.1360693051 
4.0008534715 2.8721645867 9.1303011142 -7.3007528961 4.5011482973 5.6949960055 8.7672305931 -6.8144767274 -0.82355303245 
-7.5232072745 -6.7338750198 2.6550276031 0.34466881564 -8.434914458 -0.76609230692 -0.22499180478 -5.9879330686 8.5576003364 
3.167849242 -8.3671891583 4.0905065696 8.0032778793 -8.722337889 -0.56349913544 2.6954372604 -8.6584097095 -5.057701862 
2.4920927297 2.6372857973 5.1920756128 3.907194484 4.1241888108 -8.0368392949 -0.72708203693 1.8003921964 1.6100448088 
-8.2587892752 -9.4154177323 -3.9463203402 6.1294918103 5.265549541 -5.9138997512 -5.4859943003 7.9890285968 -3.961110034 
-1.1822407165 -1.7599813171 1.1713574729 9.5001912771 2.8556807879 8.7511550293 -8.6451226706 7.8085282699 8.960668938 
3.2916464807 -7.4286776175 -9.9668889426 0.036126409816 -0.15116228197 2.73553537 -7.884650087 9.3668873071 6.2522332194 
-8.7329022596 -9.9606787561 -9.8684877185 -9.7865699195 9.9660674024 3.9003138987 6.4905216551 -9.1931563123 -5.6045704532 
-9.8125886567 -8.6975434408 9.7807896397 9.0816151049 -0.94462859748 -8.7204829393 8.7078549303 7.0155312367 5.8919323925 
-1.9720029334 -1.3404449609 -5.5074792857 9.074906791 2.2502491315 9.8401414666 -8.4317189651 -2.3707447276 -9.3523332831 
-6.0339029459 7.7163123681 9.3992308525 -6.1010458084 -1.916821178 5.3349285645 -1.8395181801 -4.2210786049 -8.9569641938 
4.7915252617 -6.1885998651 -8.9365067261 -1.9065856764 4.5936487959 8.0230819256 -9.4027516792 0.2321965288 8.0027447101 
-3.0116983203 -3.6979108616 2.0257114066 -1.9625307357 -2.0942481691 -1.788635604 0.691656469 -3.7667375666 -1.9983585577 
-7.2786975751 -0.081362197245 -0.70685844786 -0.86215868244 0.75644012026 -7.3052234244 -3.0808617537 0.77969268692 3.8207506484 
2.0163995532 -0.26232659112 -2.3123389189 -1.2696930844 -0.90352526035 -7.7726685335 6.4127787043 0.95031690342 7.423045763 
-9.4521553096 -4.6361244889 3.2111349733 3.5695327555 -3.0923272981 4.9172876627 -1.4473090438 1.7260913154 1.7286496523 
-9.3644077982 3.4758249256 2.1041285488 5.4033697605 -9.6601138099 -8.2381947944 8.6090251122 8.2992843666 8.7149840301 
7.4321019193 7.572307484 -7.6338788067 -7.4937274481 -1.1830680753 3.0649325464 5.4083970841 1.2180087016 1.9254788882 
-3.6038204364 -2.4374781705 5.8404916782 8.9988075825 -4.0631934359 -6.3603397178 5.9794286603 -1.0523284258 -7.9403947273 
-0.54995347092 7.3134932562 0.45387486469 -7.8190033723 8.6107121334 4.1973434129 -5.4867435616 -8.7389557516 2.135678206 
-7.2691555054 -1.485813139 -4.0500394416 -8.1200243533 6.2434476001 -7.192352294 8.1033686502 3.9353988244 -2.8326311735 
1.9551799222 7.145720762 7.2834959491 -9.0357784458 -8.9331683535 8.316010818 2.8537062343 1.9008100813 -1.5493883473 
-9.49404305 8.1284105017 -7.1261871406 6.3833611327 -6.8002382434 -0.073495307147 -1.8388196863 2.3037394908 -2.9097878648 
1.0759393283 -3.9948412455 -0.33995398676 3.6083783108 -3.7686556593 2.5882340164 -0.65047540884 3.4023457616 0.47616141609 
1.8624012291 3.3454621429 3.6271857294 -3.3824938835 -0.15005755377 -3.8293712522 -4.3057956057 6.2459337531 4.7875260406 
3.6120862404 -1.5919603426 -4.9695488672 2.9388669965 -3.6261884322 -2.8203214282 2.8187813883 9.7011085095 -2.0843217192 
7.4839457553 -8.6563334296 -2.6676701316 -7.7855873009 -0.57084639501 8.0328862272 3.8130974897 -7.2702611185 -0.80645044908 
0.29605872123 -5.2514843693 5.8198033531 -8.6252587322 6.9184007886 -4.7763640488 -7.646209765 1.707982214 3.7883981673 
-0.948274315 -8.5671573858 1.3323400712 -5.9836279015 -1.3858125074 -1.8417628126 2.5031600233 -3.7917947944 5.8943088269 
6.0298942111 2.2957238504 -0.59730363945 3.2987699623 -2.8984700581 -0.96167210718 -1.2513850569 4.1947398213 -0.97673648822 
-0.53167356158 -3.5496611691 1.8447189015 -8.8936561248 2.4283413274 1.5841763913 1.8423231896 -1.5967831529 2.3132959368 
9.1394085046 1.6381452418 -8.8031602796 0.73705253488 0.094707808331 -2.1678617393 -6.0487570238 2.2700785036 -5.1068859148 
-4.788479752 7.8194701536 -2.3731463743 -0.81676651576 -2.1278453556 5.0934205141 0.20099982956 -0.70169099817 -4.3387414067 
4.8163170884 7.5680011634 9.435866978 -4.3229968735 -8.2503022227 5.8340015946 7.7659470641 0.56193200517 -7.8096198395 
-8.8243168289 -7.1242796615 -7.3630621284 7.2154608645 2.1317514974 6.6056144641 -9.4141934206 -5.1123097957 5.1510099436 
-6.9196656214 -0.56967082271 -6.5197395626 7.5658729001 -5.6233698985 -3.4360232528 7.7376870113 4.8514769545 7.7302916098 
0.50064267384 -7.8772249443 -4.0016985661 8.9057747485 1.3387359072 2.6029497287 1.7393060548 -1.6062921644 0.50458057055 
0.30375649212 -3.4043289704 3.4496785515 6.4643060801 -1.469035454 -0.28179070109 -6.9250719296 -1.4236422122 0.92441320293 
-3.4363559314 0.74348981187 -0.84145612119 1.7097092391 -1.252936725 0.17126498821 -7.4827094732 0.20701378075 -0.61341888089 
1.4719033567 6.9525265011 -0.43925954587 -2.978513098 -1.3543090046 -4.0046185714 4.1683112483 -5.9960439484 -2.2377932732 
8.6545204365 -1.9594417521 -2.0313495834 1.315131075 -5.4040922668 1.2357064646 -6.7642113546 8.9649923822 -4.6306825536 
2.1088110163 3.6153682177 8.6929562178 2.0187654859 -9.8919648314 -3.4162991585 1.8743474283 5.4558518167 0.26389380385 
3.7502552295 0.16227375821 6.0165787241 -3.9022106432 -2.5929792352 4.5559923005 -5.1267672359 0.95182779998 4.1973058779 
5.5540691507 5.602437532 -6.5830900927 -5.0275297375 0.34977970127 -5.6442753389 8.4065778195 -5.0792901009 2.6624380508 
-3.6601980421 9.7203757974 5.0195885142 -5.4568941765 3.3327503164 4.3673576508 1.1121041448 8.3292578416 1.5825491577 
-8.3243828465 2.6834541406 4.4103561141 -5.2926460765 -9.6923224707 3.8035920191 7.1479852911 -3.0756003046 -7.5213829966 
0.92087990331 -9.5961952421 8.9078958517 9.6631043917 -4.7595403298 3.785323225 2.7287394982 3.6490219024 0.98099998369 
8.0736924998 -3.4398042864 8.2168404657 -7.5537491943 -1.390707584 3.180570204 -3.1098838246 -4.3492726619 -9.7322495851 
-4.4102000704 9.1632785348 2.8552869836 -8.7232479383 7.0137830878 5.5444857675 -0.46317666948 5.7391549692 6.892626816 
2.7948561438 -0.1589537744 -2.0339598124 -7.5117192938 -4.4501546696 5.4610103826 6.0287226708 -2.4787033207 -4.1073626137 
1.371384793 1.7942870505 -4.4878452951 -3.238023275 2.9813433387 -3.6487830212 -0.66967265873 2.1976043003 2.029263836 
2.5880743209 2.7494249619 -9.6097449907 -9.9206209297 -4.5585573806 7.7182746328 7.5657949242 -8.4317714931 -7.6989845139 
4.3138623912 8.3358055898 -7.3844745903 2.8341984962 2.4647880165 6.5319790926 -9.1435612233 6.1206112545 -3.3174580098 
-8.0843772438 1.2877781089 -3.740966576 -0.085456826307 0.39084632677 -2.4183898132 2.4562169578 -0.65205683583 -0.52702387657 
3.0103439688 5.1944528596 0.3254448012 -6.7341381862 9.3142496379 8.1992906107 9.1535149488 -9.968409207 -0.53956255966 
-7.0308638575 -5.8009088553 6.9916440427 -1.7269155732 4.3959376452 -0.82229624403 -3.4762464278 -6.1078292975 3.5668316099 
0.15324984407 -7.1425199626 -0.034906561346 -5.9661958494 5.3805371083 8.2991652195 -2.001666835 -4.5492546591 2.1181738929 
-0.41372152036 2.6743698785 7.2986921672 6.6701698676 3.5034260073 -5.9907181602 -2.6284106185 -0.96693849363 -7.3820541957 
2.946686087 5.5833437878 -8.3955493587 8.6430478787 -2.980717167 -2.2865010183 -1.693766249 6.4218249484 1.168153646 
7.1532616597 2.8698329288 7.968589306 -2.0222560256 -0.86225340489 9.0713933074 1.5309347706 -7.8060184425 -5.4408356475 
-2.1113595778 8.7259371196 -4.1230794696 -2.5596703716 -0.9146623999 7.8539043045 6.2455983387 2.8696486893 -6.832621994 
5.188579331 4.2586816928 -4.0501670162 -4.2291972484 3.4881695786 -4.2976933819 -2.8756138668 -0.99029474396 0.64122740011 
9.3716526872 -5.0735016271 -2.5164412134 -6.9513915191 9.6752838528 -4.3913709061 -1.7329414493 1.7038418411 -7.292709201 
-5.7654196676 5.8619784759 7.6864984549 5.2363308389 2.6397927157 -1.5632957343 -7.3625100372 1.6797727856 4.000821775 
5.6644225691 -1.542958199 6.6530229117 -2.2790207157 -5.5520904598 5.3505570186 -1.4977871465 2.3577219158 -3.1891109637 
-6.2212344382 -5.164408852 -5.4569098396 5.3258222941 8.7636541011 -3.1124157443 -7.2241247825 3.1076302608 -2.5276431752 
-5.2801682121 5.9129686522 -9.4720020785 -1.7864064404 4.1259632057 1.7700498803 4.47116551 6.0708753685 4.0288241272 
-5.6387496986 -6.8384700684 -9.7749404868 -6.638588145 7.297313411 -9.8866285693 3.1687628588 0.30777975909 -2.4337844813 
2.9164842069 -6.6907258432 9.5883740291 6.0935469565 7.8508378557 2.807219784 2.9499976785 -1.346846391 2.5882505317 
-1.728267947 2.5671183272 -0.99453910871 -1.5299756519 -0.96954665009 1.0528202699 0.73652482937 -1.6508555109 -0.94724986618 
-0.93752103916 -1.4283521801 -9.6477945117 2.2643230229 0.75479643574 -1.9615403181 6.2790945232 8.4453585938 6.7653995585 
1.7098073085 1.8354837729 -7.0722223918 -3.283799396 5.9552011283 -3.9174192006 -0.73559948344 -2.1225002698 -0.95414089308 
-2.7879450245 2.0729786629 2.8074486481 1.7452992504 -4.4693074577 -4.5296974015 5.3744141531 1.5885217815 8.0811603296 
-8.8125256672 0.90825243096 -5.301809826 3.0055639085 7.3328376681 4.6986764157 -8.506127182 -4.2509672951 0.052987726799 
-5.6096713414 7.865071709 -5.5865457954 -0.56175871473 2.4741946575 6.1807433189 3.5239069052 4.1114210026 3.9421845388 
-5.1024873788 -4.1513078782 6.6197950957 -4.5727774992 -1.1829633198 4.5297068235 2.5714469314 -2.5184052172 -0.208095257 
2.4345926303 3.3645679719 3.6101917373 5.8383317482 -7.5968649055 4.5769485178 -1.385625538 1.5834269552 3.6465705107 
0.092780482078 -9.4405912372 4.709912412 -4.0923205669 -8.9915431732 -6.7290736438 7.0726443872 9.7136530749 6.848247245 
6.3553463655 -8.5944084897 7.794367922 -1.8205999054 -1.9139171123 7.5093361009 2.0732088023 -1.291035928 -8.7021765169 
0.30536425867 2.5608908307 1.9291532162 4.8298663347 -5.3682418447 1.3643071761 -2.2212763512 -8.8884078451 4.6564734352 
-6.6828501958 5.9286045595 7.5542274966 -7.8686806202 -2.7872727815 -7.8337496263 9.3486443936 4.2545574098 -3.1013835175 
7.6064592611 2.7388559092 7.8258232483 -8.4420830532 1.6694018004 3.3918335443 -7.8925881895 -4.3156736409 -4.9126563194 