# vtk DataFile Version 5.1
vtk output
ASCII
DATASET POLYDATA
POINTS 1244 float
-8.58442 -1.71557 0.470105 0.585489 5.54908 -5.17021 -1.14183 -6.33402 -1.78029 
7.82814 10.8665 5.64848 -3.11992 -0.477798 -2.45788 3.0214 2.15448 0.0379092 
0.352955 1.53812 3.44769 0.516247 -2.23762 2.21429 -1.85075 -8.0408 18.0844 
-12.0824 -15.3501 3.27728 -13.2186 2.02437 0.0883347 -10.8138 -14.044 4.1625 
6.55005 12.9572 5.93115 -11.3132 -14.176 7.01568 -13.324 1.51012 8.27883 
-13.2843 -17.0537 9.64544 -10.0677 -8.31396 -3.74838 -3.1929 13.7603 -8.40248 
-10.2616 -11.5519 -8.6937 -7.17696 1.20601 -7.00672 10.0477 12.1044 10.0682 
-16.449 4.76273 -16.5236 10.2919 -1.80302 9.53557 -7.99663 7.50749 -7.97081 
-8.17295 24.0658 -8.75978 -13.8148 5.35038 -12.373 -14.7992 15.6591 -1.39959 
-6.19861 7.5037 10.3366 -17.7945 -2.24252 7.7422 -9.29815 -10.7829 -3.10277 
-21.8554 4.24122 4.9909 -9.33844 -11.4195 12.2231 -18.5659 0.447033 5.72388 
-7.20775 7.93986 -2.24066 -14.8295 15.3231 15.7947 -11.8843 4.22917 18.6792 
-16.8888 7.95573 -1.18826 -5.89966 -1.11373 6.7743 -17.6912 7.37231 -6.47476 
-19.232 6.05111 18.8866 -17.6128 0.869622 -7.63364 1.03847 2.13 5.42999 
-14.5775 -2.90323 7.87812 -14.5279 19.9804 8.23711 15.1918 -15.0852 0.432491 
0.752465 -16.0005 -0.0850688 -2.99276 -10.6581 12.3972 -8.90574 -9.6754 -0.357597 
3.14057 -22.0071 5.62514 -10.2696 -10.008 10.8292 -6.00536 -16.7291 0.832474 
8.62011 -8.89055 -1.92133 15.1769 -16.1021 12.8687 12.5774 4.06796 -17.4527 
-2.0093 10.3508 -14.1923 8.45921 -0.0359192 -4.09119 -7.06125 7.25326 -17.3075 
17.2362 5.70886 -20.183 -7.70305 1.71654 -17.1236 4.96924 1.5796 1.45566 
5.92504 -3.51041 -15.449 10.9989 18.3544 -13.3614 3.56149 7.81767 17.5892 
-0.94243 -2.93876 11.5529 -4.86349 -1.25147 -2.62287 6.19681 5.79103 7.93267 
-9.51877 -7.15032 3.11316 5.92447 5.44551 0.104758 -5.20794 -0.692341 12.2093 
-0.700811 -7.56359 0.911818 5.3688 1.26736 23.5091 8.86898 19.2158 6.95737 
-4.13994 10.6116 -4.05219 6.64486 3.7533 6.99964 -5.55643 3.17238 -5.88876 
3.01261 21.8644 3.47686 -4.00264 -0.814831 -3.76214 7.71052 5.66165 8.03549 
-0.206963 -5.01843 -0.966458 2.77292 22.0712 2.41932 -7.14069 -13.3127 -12.9313 
11.7353 -4.9336 -11.8689 1.9459 -18.5238 -8.26516 2.49809 -1.88963 -20.5341 
9.37228 -20.5497 -11.845 7.50493 -1.2837 -20.4072 6.37264 -17.5535 -8.91597 
14.0051 -2.71153 -17.6783 9.40771 -17.5647 -10.5856 -4.57218 -16.7378 8.29558 
12.1583 -7.13062 14.9431 9.42116 -12.897 -3.37914 13.8391 3.56666 10.179 
4.7099 -16.0808 -1.58541 -4.63668 3.63532 10.6489 -1.12486 -11.9885 -2.47214 
-3.24932 3.89207 5.42011 8.01145 -16.4697 10.7799 1.09408 14.5382 -17.5465 
11.3805 0.595193 -16.2041 0.0803776 10.3654 -3.42833 6.41335 2.30945 -16.9802 
5.0909 19.6492 12.2075 3.62099 2.66334 -17.753 9.33193 12.3533 -2.98788 
-2.77729 2.91022 -13.5843 15.3179 8.94777 -14.4793 6.05203 -6.74008 18.311 
14.6607 -1.16225 0.428358 3.17682 13.7493 7.80742 9.73863 -5.55977 -5.87218 
6.58889 -8.9197 14.3967 0.23683 -4.15891 -5.31019 5.9206 12.3063 5.94493 
-2.01925 0.88684 3.46146 23.9642 3.55677 5.55745 8.71724 -0.0588342 3.76567 
-10.1955 0.53718 -0.730089 8.46553 7.774 9.66984 5.1912 2.49759 -4.91149 
-5.81134 5.36921 1.64429 0.346819 9.76136 18.8305 -0.216676 12.5184 1.61342 
-8.47667 -1.25873 10.4325 -9.29259 -0.0697485 11.0236 0.672007 -6.13395 -6.60442 
-13.6714 3.6794 1.4102 -8.24818 11.1447 9.18114 7.80334 -4.85687 1.21966 
6.59561 6.45592 13.8468 3.38057 4.12912 9.61019 3.37468 -4.58609 14.444 
3.26182 -3.58086 -4.34407 -1.63389 4.84971 3.64187 -6.22186 -2.53542 14.772 
-0.131204 4.95529 -0.428059 7.97013 -1.16393 1.38358 -8.284 7.31971 15.3281 
-15.2042 8.29049 13.0612 5.07559 17.8325 6.12714 -5.14411 -7.8784 11.7931 
-5.29382 -3.45117 1.7308 -5.19698 10.5921 9.64231 -13.8283 11.2053 0.781565 
6.47202 7.07595 -6.34788 -6.08426 3.70769 12.6257 -3.0657 2.59166 10.5151 
-6.61369 -1.86413 8.60129 -7.24569 -9.51744 -1.36682 6.48045 18.731 1.08338 
6.49798 1.79944 2.50833 10.4566 9.46054 5.457 6.81099 13.2806 -3.3624 
-1.65109 -0.721831 -1.57071 -1.59886 5.03132 -6.02026 7.84377 10.1426 -4.82227 
8.91463 -1.68207 10.2314 5.96724 10.5657 2.61665 -14.4099 1.57215 -6.23268 
-1.63806 5.64887 -6.11014 10.542 4.36216 9.66299 13.6267 3.8959 10.9885 
-2.09152 5.2961 15.2221 -14.58 6.57784 14.4744 -0.573116 9.76247 14.0199 
-15.9702 9.95268 4.83759 3.40302 -3.92577 9.08725 -5.86269 -6.26683 11.6082 
0.0480322 -9.92059 9.71951 2.75886 -3.78394 -0.0511289 -10.2407 1.60338 0.629172 
-10.8503 1.66534 8.78213 0.773786 -0.267257 11.4648 0.264281 -10.1897 0.857432 
4.22513 2.884 15.0321 -1.40408 2.95726 -0.334039 7.04427 6.07243 19.3356 
6.23998 -0.264744 5.32934 -9.2568 11.5516 10.3017 -6.45449 -1.64114 17.8046 
-1.71689 -0.117486 1.40885 13.0639 11.2305 11.2302 8.69684 5.90886 18.3655 
0.0428215 17.1678 10.8892 -1.83726 -1.96845 11.678 4.34969 1.43102 4.67061 
-0.167773 11.334 -2.93979 -15.5628 4.72127 -3.72134 8.42678 8.45181 14.4859 
-4.46378 2.68913 1.58656 2.34691 -4.42432 -1.73961 1.07843 13.4394 -0.460741 
3.21547 4.03346 9.03803 8.34086 4.59281 11.3129 -3.78173 12.5368 4.06795 
-2.06822 14.1188 18.802 -0.0994986 15.2356 -3.74605 2.41365 6.04753 14.8434 
12.2022 1.24466 -4.28558 -11.7071 -2.1734 1.7732 -2.22522 2.85512 -7.08268 
6.41263 6.91418 -2.6941 -5.94464 2.58289 11.4609 -12.0076 5.50275 4.14383 
-2.66401 4.84603 -9.98552 9.74973 8.56169 10.8132 0.140698 6.01981 12.9482 
-3.91583 19.7668 4.60793 -14.2284 6.37258 -0.612104 -3.18604 2.9287 -6.40022 
6.25605 13.142 -4.41734 7.11659 0.466169 2.11644 -7.90895 17.2786 -2.90257 
-1.80659 -4.21483 11.4492 3.66759 3.85352 -1.63472 -4.25654 14.8688 -2.41611 
4.28963 8.02893 -3.6531 0.535743 3.69306 -7.59137 8.48353 9.97654 10.2182 
-3.75604 14.1877 7.04853 -14.418 5.16703 0.150861 11.3988 8.12037 -5.30657 
-3.04374 15.3426 7.50528 6.29755 15.3813 -1.13308 -6.8161 9.15436 9.17268 
7.56376 13.53 11.1036 -10.0659 12.2569 11.0241 -4.82299 -6.86493 3.45986 
-8.12243 15.2409 -3.42981 0.923797 8.25518 13.1927 5.13438 -1.9359 -2.23413 
-4.52625 -2.12691 -4.04179 5.00532 -4.11944 9.8485 -6.69542 -3.36426 10.9288 
-3.78331 8.28523 20.2107 11.7406 4.56728 8.4595 7.17135 12.4728 0.820757 
-5.95532 -0.180671 12.737 2.46667 18.2715 15.5144 -4.66855 18.0546 4.30409 
14.0095 7.50577 6.94928 -8.52783 11.1929 8.99941 7.9784 14.4031 10.2563 
-0.779453 13.7584 -6.0839 -11.1727 4.84897 5.31764 8.9152 0.361305 10.5058 
-1.36477 4.51077 -11.4284 -3.9062 10.4307 12.013 -12.1777 2.40443 2.96487 
-0.2854 12.0407 12.2757 7.48775 6.56324 -7.13873 5.04197 -3.68634 -0.985437 
-6.74033 0.501431 2.23708 7.56766 -0.729263 -6.55437 6.94158 -1.55534 6.90777 
-2.56317 8.32441 4.88566 1.476 -8.89672 12.9414 -15.0979 3.06432 9.39692 
2.00211 8.41052 -2.74103 -6.53394 -9.5648 2.53836 5.92156 7.74218 6.17331 
1.83617 -9.46518 -1.43696 -6.73192 7.04869 7.65828 -2.49972 -8.9371 0.402135 
-1.90543 7.00708 -7.68508 -3.54031 8.16929 -3.93081 -6.48031 11.7889 7.66312 
9.41934 0.680248 -2.08377 -0.430323 -6.2118 11.5198 -6.81299 10.4761 5.19062 
-2.41318 11.1476 19.813 4.68638 11.1694 2.19525 -0.479937 -6.94253 -2.60546 
-14.6424 -6.54388 4.81188 -11.5807 7.5722 -1.65042 1.4286 -8.5541 11.6927 
5.97113 8.38568 5.36211 -7.44931 -5.52964 6.70934 0.821132 11.3961 10.1154 
4.05545 0.404151 18.5544 -3.41254 -2.77483 3.83954 7.31703 -0.118171 6.0308 
7.22203 -3.70299 17.755 -3.92507 7.55769 0.776657 8.28321 -7.24671 5.30796 
-3.2789 -5.45463 13.9272 -10.6598 -2.88302 2.57723 6.74749 7.06871 -1.29328 
-2.12588 -4.69665 14.1981 -1.16524 7.84291 15.0659 -6.09301 -6.16161 3.03842 
-5.43184 8.458 7.75438 -5.46796 0.47069 -5.37049 -6.07803 3.05951 14.8184 
-16.0919 7.40299 4.62536 8.74015 10.6781 4.19108 -3.33653 10.6997 -2.48982 
5.75899 -5.54215 0.888071 -7.8839 3.16901 -3.56389 -3.20243 14.6348 10.0922 
-9.51263 6.02933 -9.47 12.0043 -1.60292 0.00981646 -1.82857 11.1723 14.5717 
-3.29843 -1.24477 -4.67712 15.723 -6.94573 4.21704 6.48793 -1.91725 -4.45121 
17.7982 3.28585 9.55365 -6.10387 7.05836 9.92327 9.11367 3.78044 -0.227413 
-2.20706 1.71967 10.9938 10.6427 8.09443 -0.121653 -3.90661 7.88678 3.22947 
5.1514 3.39992 15.1954 12.7241 -7.88422 -1.5877 4.33114 2.68814 8.52115 
14.4897 11.0853 15.5689 18.7977 -4.74042 3.00093 15.9166 12.3159 13.7133 
4.34333 -0.819846 10.5773 7.77133 -4.11586 -0.913626 3.56514 0.0559768 10.4237 
8.12447 1.11105 0.366378 3.17597 -1.61276 15.5345 9.53426 3.40538 -2.30531 
23.9408 2.05374 9.08282 1.17782 17.6889 11.1652 8.87597 6.40438 -2.46026 
11.9793 19.9934 11.3269 9.60081 -6.77868 6.64969 7.07046 -7.20379 4.23666 
4.06917 1.75148 11.7189 0.336338 2.91376 0.00329404 16.1492 0.555886 0.284236 
13.7292 -2.32566 4.3853 14.9566 2.35109 4.87264 7.29424 -7.5425 5.74044 
7.01868 -7.13717 1.96948 10.8405 16.4616 4.4803 13.2054 21.2016 4.5555 
2.67247 18.8702 3.83914 11.2321 13.5157 15.0732 1.5232 9.44357 8.68251 
7.89005 6.96593 -3.4055 12.6124 3.85711 -10.0003 14.3592 -2.02203 9.23386 
14.5801 -1.86135 9.74504 -0.5559 -2.49887 12.0167 7.46839 7.20194 -3.0517 
19.9038 4.19676 11.0559 22.4007 4.42382 6.72851 8.16816 8.29731 14.2773 
-0.227332 -0.500785 1.82244 0.383279 -6.47841 16.3207 -4.68019 3.74002 6.88687 
12.9402 -4.19133 8.91665 14.412 -7.22578 7.82659 15.6566 -2.38104 4.26566 
-2.32292 1.10904 5.78973 1.60423 0.87346 12.5644 2.14315 0.606192 -5.25849 
7.48089 -6.40597 8.75555 17.7642 -3.18428 7.30603 14.1832 2.11026 15.9453 
9.70361 3.22519 -1.40002 17.3708 2.40728 20.2363 16.2665 5.53581 6.67408 
3.57118 11.5749 17.4741 9.70622 0.906903 13.251 5.47893 -0.149317 0.201421 
16.3685 10.7117 -1.27769 13.4796 5.32695 19.82 14.1463 14.7677 13.4753 
1.7387 8.78043 15.7025 -4.46521 5.02729 5.50366 12.9097 9.5261 -0.264755 
7.3199 -4.39886 14.1529 17.0444 11.5167 18.7543 9.16936 6.4241 0.831958 
19.2082 2.54867 1.0984 7.35341 18.1546 3.15463 13.5623 4.58481 15.2728 
-0.436045 7.26005 3.188 10.602 14.4382 12.7659 20.6707 9.53088 6.38997 
9.83466 13.386 -1.11782 15.3409 7.12421 19.115 19.2191 1.00096 -1.85649 
0.0242102 5.46335 -0.797177 9.35994 5.73508 -7.43632 21.8146 4.07365 1.73654 
[...]
CELL_DATA 2484
SCALARS scalars double
LOOKUP_TABLE default
-2.3419956355 -6.0961839036 -6.5781283559 -1.8837102067 2.0815580488 -9.431321719 1.2281049423 3.3689025473 -3.5525506008 
0.65586689358 1.2101517837 2.2020830827 2.7845723144 -9.4730632674 -1.0278725854 -2.2151518075 1.0472002507 5.2971619823 
5.2013763791 -6.9819893784 2.5012495054 -2.6643224553 -1.9005601872 -7.8920500026 -8.055557199 8.7275203443 7.4049085823 
-9.4930961742 8.3549366926 8.9031420104 7.9089224981 -7.893731221 -8.1477836574 9.6904286972 -9.9840309493 9.8756273329 
-5.153744205 -6.3732150695 -7.9945948375 8.1759920002 -4.8710748479 4.6104566251 -0.28642327259 -0.90431621482 6.2598984234 
-9.4756292185 7.8037383812 -5.1059266504 -2.8072762363 6.8468658617 5.3139007061 -4.0840901006 8.9083497422 -2.817315681 
0.15178278989 -5.3974696682 -6.5706902204 4.9653260819 3.8354884744 0.056017523369 4.9293439773 -3.5883683611 -0.80252701599 
6.6732692793 -6.4228247198 3.4878294746 -3.5004823165 -9.0205616886 1.3460409722 4.1552289334 5.4607226029 -8.8652573763 
8.698176888 4.0470413168 6.5319335192 -3.9815359351 -4.8141705804 -3.9801798056 9.2128316133 -3.9410905983 -3.5521758032 
7.8163562829 -6.8195517418 3.8226727678 -5.6947511385 5.3102935267 2.933672299 -8.7336161027 -4.7196951918 -9.6939122801 
9.7621907988 -6.5816556251 -4.6673126189 4.544030193 7.1309914115 9.0028698485 -6.0241015759 -6.8024151407 7.5054444013 
-8.7797236478 -9.3716103531 -8.3608578585 9.1558362042 7.5808696085 8.5246984466 -9.2206820644 6.2424404271 -7.9176640596 
-9.9145497966 -9.9077857169 -9.5620071105 9.8798029878 -4.338350552 9.7580274536 2.1786087759 -2.3468537814 -6.866487704 
9.7569023283 -4.6111347078 3.5505619551 0.47321631271 9.4988699659 7.1499239107 -4.3799688028 5.3162173337 4.7727741586 
6.317163212 -5.5896656532 -6.7529323815 -3.5689596794 4.8392254973 -6.4382590509 3.7084365713 3.3366613788 -2.8067732162 
5.248842917 4.902607544 -3.9565059125 0.73488918827 -7.7169774046 3.2264274659 6.0065324279 5.5411322993 3.7558421538 
6.2365809122 -3.8721681471 0.037223417697 -1.7762684854 -8.4437090504 1.1377136825 -2.7483923327 -2.8490634696 -1.5947818516 
-7.9804441901 9.1099725756 4.1507514836 -0.38141201828 8.3031076417 9.7281310245 8.3248230786 9.416159661 -9.6699175128 
-8.0071358027 -9.8299664993 -9.2363783161 -1.6387509135 -4.940658289 2.9869521768 -5.1281036791 -6.3593082703 1.0172400475 
-5.9845612431 2.2642340919 8.3071782527 3.6553320161 5.9290657901 0.5337775787 -9.9686053519 0.13458839166 2.3698971129 
-0.93739211073 -9.8316949912 -5.3918222476 8.3400215486 -2.2780720017 0.086296846496 9.8513153943 7.5933486809 -0.81168152474 
-8.4274785719 4.5813938012 -5.9324975859 -1.2948019937 9.9304972271 5.9241754787 -1.2616487965 -8.6139728896 1.9918550226 
4.9679419959 -9.1909764726 -9.2339188171 9.1873063004 -5.6893387523 8.4730301956 4.2481098595 -4.2806140535 -0.87573205922 
-6.189892995 -8.5396261578 1.909383378 0.410339002 6.201626102 9.5092967816 -4.1094021068 -3.9347099447 4.3807069939 
-2.2844733946 3.9775638052 6.809625405 1.2205488062 -5.2953443044 -8.9133263008 4.3609113596 -6.7565920996 1.5438320745 
-0.14029175537 1.8745051093 -9.6399826957 -6.404877172 9.7850802224 9.698991441 7.7514609223 8.4351146705 -9.7596104752 
9.2121612187 8.5647551616 7.3005176868 -9.2415867641 8.4254641374 9.039240857 -2.4503922774 -8.4077324017 -9.6821647417 
-8.3407762983 -7.9975587173 9.8482005605 2.5974634083 2.51849101 -5.6722366236 6.6610683905 -0.98383355191 -0.33325944848 
2.8089377156 6.1143617812 -5.4062987855 -2.6879741825 4.2297229222 5.8823141738 -4.6038108771 9.0306123682 -7.4905869864 
4.4522855829 -4.1344122561 7.850745136 7.3626283469 -4.6941783762 0.31912387973 6.8073558575 5.6395753356 -4.4402432323 
-5.811394825 9.747073543 -5.6782097874 -3.4792844312 -6.0056319173 9.2184283935 -3.4067769018 7.2111491176 2.0195843215 
4.1919266905 -6.220208005 1.6522554499 -1.0838284851 -7.2966994266 -7.2991802211 5.4098764713 3.3162719103 -9.4853054214 
-4.4025297723 1.157142024 -6.602268495 -8.9469292477 3.8975015726 7.2979380662 6.9867569274 -8.7484774058 -2.9058268164 
4.7337295934 3.8309688657 8.4697526943 1.8451341319 -4.671493506 -3.81426124 -1.4238635338 -2.0055494641 -2.4675914731 
8.0045150283 -5.860824189 -1.3230748461 2.889827959 0.32586977056 7.059825165 5.7227644232 -4.1373948194 -3.4787354956 
9.897661921 4.1930152925 -4.1483170683 -5.5865221876 -4.0411568384 9.7136721469 -4.2152182215 7.7725271269 -1.9303642913 
-7.8020593462 6.0244988335 -5.2841085692 1.4501927082 -1.9455471666 6.294983831 7.5285483552 2.8787797005 -1.7489607537 
9.9477118547 -9.0491991219 -7.2696700433 9.1695727294 5.5007003822 4.522731103 -1.8460943924 0.19338342534 -2.1781747702 
5.0905032195 4.6091694954 -2.0500448535 2.6800017478 -5.6569705118 -5.6739254121 5.5457301309 -6.1561743298 -6.129589496 
-3.3864376485 -3.566296401 -8.8999121161 -4.51572047 -6.0526651823 -6.863031328 4.6429518687 1.6052379913 -4.2058052247 
-9.522477374 -1.980095841 9.9136003682 6.977506475 8.3405444546 -8.0133979851 9.1416451595 -9.5138106779 -5.2647755452 
8.4964594886 9.6457947767 9.9231777516 9.791090145 -9.6213617536 -3.2646816005 -8.4955165096 -7.7762381711 7.9431381141 
9.5328627826 8.5817063925 -9.8456190853 -8.7298529732 5.3349780408 4.654500913 0.3491220928 -4.4144518382 -1.3863498057 
1.0211906195 -1.2536453353 1.9531467297 9.6873930721 -1.1083725405 -7.7104056826 -8.9579692487 9.0725012826 -3.613821974 
0.33181206438 -5.2742743814 -8.3855316744 8.5046261293 0.38164834221 -3.7090834923 -2.1168778919 -2.9579463556 3.9187408763 
1.8672757348 5.3677656328 7.1310591468 3.2687430057 -2.3574448478 -7.9136721973 9.767073857 2.6434680896 -8.1925330126 
4.6630906405 -5.8344849441 -3.2477186711 4.5355097602 7.8743536685 -3.2132384165 5.437833787 6.7405499294 -2.8091296338 
3.1597766332 -3.8925965267 7.4808146359 5.3195051507 -0.35771738289 -7.5367288039 3.1567304049 2.7613602285 0.96257752302 
-9.7834808209 -2.2734398305 -4.2396440874 -4.3354192814 -2.4309927404 6.0089457618 6.6542235341 -9.3587153897 -7.1274847716 
9.9723129748 -9.1112886619 -8.0671922697 6.4022644446 8.3708560487 9.3791801589 -3.3202761515 3.9753734907 -3.9019662556 
-9.901591846 -8.0032545924 3.7264905718 -7.0946791843 3.5006789352 -9.6351875274 8.4058036315 5.5952889606 5.1464032976 
8.0282023125 7.0162406394 -7.0858677596 -8.8082080994 -5.1495893541 6.20822763 8.9242541039 -5.0669541861 -1.5117824676 
-1.3261263075 3.7555132775 -7.0955134935 -2.7395258337 0.25210062088 0.74441308398 -5.4647949292 0.30355320005 5.6869466339 
-8.7066414445 -0.66972877543 9.3380399691 -6.1356980196 -0.23957534397 2.3881900988 5.1485077646 1.2521576763 -7.558348153 
1.7306685887 -0.84637936167 5.9387232676 -9.7610929398 9.8050940753 -9.7140785851 8.7163913451 4.7955703545 2.0444269711 
-7.9692384196 6.179024747 -8.33521277 4.7075314635 -7.7118623335 -4.5615196591 8.9185938569 -4.9561874134 3.0166223047 
-9.5365576338 6.089554829 8.0754465255 -6.1669349562 -4.5579460844 8.8959763043 9.5039910856 -9.944234656 9.7389210525 
9.7980264452 8.4375297281 7.4629774012 -9.2858673903 9.8750967326 -9.9645214308 9.94369 -9.6085413276 -9.795794657 
9.2560449793 7.2912318148 -1.5946904652 -8.3019489956 -6.6121817817 5.4990708735 9.9850582775 -5.6339013572 6.2290521014 
3.3700935611 1.3912438898 -6.4580001762 -9.4147273633 3.193074396 -5.8480898929 7.7971773297 0.67289066278 0.78945025168 
-7.0134814196 4.5988528142 -1.7273916032 -6.4843519133 9.0369279017 -0.032387160776 4.2804721832 -5.9695576054 6.7159171957 
5.7600853365 -5.9514028011 2.2165716287 8.5768219661 -3.8354522274 5.4841032499 -9.4603361338 -8.9316430969 -3.2979959217 
-4.2910896914 9.4612037355 0.22142292454 0.14959124814 -9.0703630464 -0.45692888146 4.4215497965 0.28210245682 -6.6444247619 
4.6236265684 -3.4280037578 -6.4274583688 -1.2183185981 8.0193077851 -6.934874252 -7.7203125908 -8.4530880147 9.5626879979 
-9.6007998535 3.1924275827 0.63816897589 -2.1583783975 6.6279929305 -0.42324404782 -0.81076046048 -3.0468785164 -0.52255459084 
6.1761615701 -4.6973436594 6.4731492866 -0.41637862943 -5.2888760353 6.0780714386 6.5224885967 -5.3445369166 0.13101884802 
0.24576837746 9.8760256601 6.277928893 -6.2791678012 -2.9438272834 6.230681148 0.35693929193 -9.3037742558 7.7196324314 
1.1098466361 -3.3277163123 3.0057024398 1.0178476644 3.6837092786 -9.2535313258 8.8341172538 4.9232091792 -9.2638461149 
0.67582771178 -4.6964389221 8.530881444 -6.4653234111 5.1056513867 3.566177689 5.2899389157 -3.5161412339 -4.6184051154 
-0.74199807417 9.6659049431 1.3567432947 2.4730502483 -8.4166592677 4.9289763998 0.46829441489 -3.0926010269 -2.9623535399 
3.7146965594 -0.51344196594 3.8192205924 -4.8481897605 -2.6092252282 -6.111817828 2.1462118966 -1.8001861223 -6.7530329757 
-6.413686779 -0.67005675285 7.7048713118 8.2385165849 -7.4739553577 -9.9151288915 -9.7233639217 -9.9648756739 9.9880655217 
-9.4323558567 -3.7718311737 2.7426621403 4.6314119164 -8.4898497821 -9.1382594274 3.2158439025 8.3960499619 9.2897163929 
9.9350717527 9.7501642411 -9.8430894541 -7.3733908606 -7.1165124071 7.5550690883 -7.0937458915 -1.0815799573 -9.3997917314 
0.63609898716 2.3943502491 9.3487209245 8.7893248022 -8.6916444585 -9.4086933147 9.3496748602 -4.9515610697 1.4064403647 
4.8868608988 6.2651082949 3.7725448479 -0.64784927153 -2.6207934738 8.2130380641 9.9157193129 6.4396585193 -9.0452842307 
3.2033353165 0.84557798848 -6.6299568318 -5.5545929067 -5.1608679766 -1.2798202995 -3.8336932334 1.8775256572 2.3996805716 
-7.4409074588 6.5858634885 8.7563578933 3.304526481 -2.5728990019 3.4772846664 -1.412201105 -6.685434263 6.0053411565 
-0.60855070222 -1.7643245945 9.7978925714 8.7422009963 -4.9531307609 -8.8222371747 -7.0137928775 7.8461388248 5.1672763285 
-6.2259522004 -3.7678945823 -8.5591931754 1.2126445463 5.8023945611 3.0405485474 1.5845282911 2.3259944397 2.0680909298 
4.2488540878 3.1549180691 8.774799154 -6.9997249753 4.7990576925 5.949596257 8.7726674419 -6.8592119523 -1.1185971472 
-7.6928206198 -6.9591169973 2.7195429245 0.21145875274 -8.6114495915 -0.85476506792 -0.19539930682 -6.1406450779 8.3567877143 
3.4681693887 -8.4622132254 2.7931418978 7.4938616862 -8.6218158236 -0.88898546436 2.5672044975 -8.448303747 -5.1130007651 
2.4876775327 2.9191844272 5.6750722033 3.6893093547 4.1951192548 -7.547647687 -1.1532683171 1.144118728 1.7815484482 
-8.1713877449 -9.4233354972 -4.1658521785 6.1726997652 5.3759384305 -6.1418703898 -5.805756595 7.930163475 -4.4284743262 
-1.0545258841 -1.6325186744 1.0409654866 9.6060872046 2.7685094701 8.5356953255 -8.4469383418 8.1275043148 9.0388645099 
3.9734846492 -7.6399909946 -9.9888439599 -0.06664723195 -0.061291479921 2.5832366931 -7.7993522962 9.3830430965 6.1511836087 
-8.7218075591 -9.9641291786 -9.8459975881 -9.788973204 9.9516923879 3.8962379455 6.4711076963 -8.9508921565 -5.4364232536 
-9.8381125719 -8.938751043 9.8024910211 9.310907148 -0.82137173848 -8.5756996825 8.8368848043 7.0533646837 5.8497042184 
-1.8883395437 -1.1507619263 -4.9630273277 8.9186536098 2.7058610152 9.7678348074 -8.3023846164 -2.7089150074 -9.1843397227 
-6.0825749035 7.5419351954 9.3330744282 -5.9839418491 -2.046963862 5.1216196147 -1.6538765109 -4.8865740476 -8.9199847236 
5.1694718468 -6.0189451525 -8.5855975663 -2.017291905 4.1899646492 8.0481237317 -9.3825431769 0.46212860679 8.0422804327 
-3.1707982375 -4.0134618789 1.9745048983 -1.790261874 -1.2363785131 -1.4273944614 0.10709370958 -3.2700744554 -2.1982657858 
-7.4460645498 0.0021282433226 -0.62971219805 -1.2630146937 1.5655734168 -7.4573229872 -2.8021897144 0.63223375082 3.7247958304 
1.7796341333 -0.3131985726 -2.0507607603 -1.2648479249 -1.1827405868 -7.9602428516 6.5503122098 1.4300033683 7.1831396287 
-9.5356945491 -4.5479670786 3.1117542452 3.9644140658 -3.1670638761 4.5574110151 -1.5709998227 2.015460611 1.9474084842 
-9.4367277226 3.8019751456 2.9236891293 5.4607690943 -9.6661570239 -8.4765876112 8.5957056716 8.679553255 8.4191879832 
7.4429650178 7.7116118743 -7.5893662773 -7.86244112 -1.5030071369 4.8945319472 5.727775425 1.3623950907 2.4414645833 
-3.8063431775 -2.6230578181 5.7925463195 9.103782442 -4.3624316866 -6.4633466067 6.3624341014 -1.1355465321 -8.430486232 
-0.72502487121 7.2019870954 0.43090626993 -7.767805935 8.0933326267 4.4502560314 -5.8390166669 -8.8567011243 2.2658864704 
-7.4915630611 -1.8457545913 -4.6884001647 -8.1016762159 6.7509933786 -7.7192158804 8.0926005754 4.4662788569 -3.8424885214 
2.4974846116 7.4133951852 7.4714852352 -9.0080168152 -8.9718767568 8.3672170452 2.6433257404 1.462762633 -1.7471387998 
-9.5629807987 8.0163292442 -7.1638095763 6.3088206479 -6.8648202946 -0.78726373634 -1.179699177 2.5909901324 -3.0270539643 
1.7834896221 -4.5811937435 -0.19571223529 4.1851190304 -3.6109358732 2.9446759003 -0.50915552791 2.8363646809 0.71649942675 
1.775178359 3.4747777469 3.7332851506 -3.5262318687 -0.044461394071 -4.0326925583 -4.2990075516 6.2354325642 4.8750800507 
3.4047985462 -1.4556952926 -4.7705876405 3.1718830148 -3.8103451161 -2.9284626099 2.9339408157 9.536904728 -2.2227766209 
7.4849099567 -8.5566289122 -2.7623367958 -7.4579263936 -0.60376358226 7.7737221496 3.4585761868 -6.9637432964 -0.62423089997 
-0.26417931643 -5.1540134087 5.5784805874 -8.3069968806 6.829272856 -4.4075066128 -7.4448825989 1.9076452142 3.8371749273 
-1.0596137173 -8.6331266257 1.3248666127 -5.8443365636 -1.6158273547 -2.099554198 2.594197232 -3.1380354927 5.8333760565 
6.1350297136 2.3881119172 -0.37073679504 3.1144379446 -3.1642202009 -0.99956534816 -1.3729627088 4.7802336899 -1.3853737145 
-0.69672545988 -3.5344155117 2.1299132624 -8.9577028688 2.5540354361 1.448976862 2.0465406437 -1.441769407 2.5065536554 
8.8895393376 2.0355958308 -8.4654869678 0.881783634 0.38119742363 -2.5713784535 -5.9349639906 1.8038270419 -5.4291465933 
-5.2799912969 8.2683861511 -2.3051919321 -1.1129594672 -2.5730850604 5.4252804835 0.11303927051 -0.73346555701 -4.2667235776 
4.9020255806 7.4031226495 9.3858230924 -4.3353007941 -7.87500492 5.6508449294 7.9890277513 0.6995597371 -7.7376616422 
-8.7406703233 -6.6299796787 -6.965805928 6.8954134739 2.1582397961 6.4486053239 -9.2658438778 -5.2469232387 4.6996443808 
-7.1287194881 -0.5043806156 -6.4912411089 7.4268157497 -5.7452117039 -3.6976427619 7.3651163098 4.7899824118 7.5069202397 
-0.48656926305 -7.9566707599 -3.8712818322 8.77026785 1.0018958833 2.8223490476 2.0932062643 -2.00153794 0.26041733661 
0.41164012075 -3.0506410767 3.0258072272 6.2410452002 -1.7675832221 -0.20431317839 -6.9398467453 -1.5699392849 1.2757620414 
-3.8486138303 0.7908925248 -1.0819837142 2.0549221418 -1.0441041041 0.20948385779 -7.595540985 0.20053047348 -0.75358939504 
1.3308957787 7.0576471335 -0.333053573 -2.1126886041 -0.88356519283 -4.0871614158 4.2001228858 -5.9108171584 -2.7860636405 
8.7834799646 -2.8233661393 -1.9525784797 0.78507798504 -4.6929786654 1.4197364024 -6.5123681361 8.8752502381 -4.3559158853 
2.1710078263 2.7643595165 8.6635573565 2.4703348574 -9.8943312392 -2.681148118 1.6781722015 6.0009186212 -0.44376124679 
4.0939919819 0.16057310164 5.5025007137 -3.8325809404 -2.5962013461 4.8472823764 -5.42290998 0.07022159697 4.0225182582 
5.6883249786 5.492587659 -6.5534075545 -4.9821972283 0.54868138319 -6.046814183 8.1088267025 -4.9938002444 2.2598228919 
-3.7533815233 9.7228669611 5.4404546619 -5.5688105 3.7469878511 4.8737635907 1.1770964057 8.6947181481 1.9457481922 
-8.7166052415 2.6841349589 4.8656738181 -5.2515688763 -9.6889569316 4.0330350823 7.6309577291 -3.0546030689 -7.8747925704 
1.440969432 -9.5890868807 8.9426499887 9.477512093 -4.7275544491 3.2403548458 3.0661400932 3.7784138625 0.70198282745 
7.6921027071 -3.9560539123 7.8668028715 -7.9749196464 -0.93418356626 3.1817266774 -3.2552898422 -4.5754064565 -9.6953653232 
-4.2310007263 9.1219106603 3.4854594225 -8.9269175304 6.664340566 4.855187566 0.098886987443 5.5814958092 6.7249233954 
3.1071497169 -0.55751331142 -3.0177751144 -7.4586471697 -4.3140965212 4.4274272951 6.3618236742 -3.0451095358 -3.6214790006 
1.0887502278 1.5626384829 -4.2977118086 -3.0800703707 3.8267276074 -3.8124425979 -0.099223796396 1.7383060805 1.6981340167 
2.631537641 2.5890187871 -9.4964112227 -9.9698494127 -4.3384742172 7.9381989168 7.6403484619 -8.3138810355 -7.8166897256 
4.2840007981 8.4320666529 -7.6693348307 2.6862915988 2.4216168506 6.2697703251 -8.7208643323 6.1687176324 -3.4669324491 
-8.4414954009 1.0999164012 -3.6869841518 -0.032133225459 0.28493048548 -2.394603356 2.3146036477 -0.086960230039 -0.64396861333 
3.2449269254 5.1433904158 0.45403368785 -6.7504252789 9.2396077427 8.1036789327 9.2854095277 -9.9576552246 -0.77062764803 
-6.8697457987 -5.5343134477 7.0634334896 -1.5220975522 4.565207279 -0.94795771433 -3.7470480166 -5.7933445116 3.7581740163 
-0.081596608171 -6.8730035678 -0.50643144881 -5.2952228395 5.1750728115 8.3888693492 -1.6309231681 -4.4931422182 2.4592429503 
-0.56499375103 3.0136390506 7.3383764905 5.9822922798 2.8882234816 -5.7159916992 -3.1273513355 -0.46242299892 -6.7949823344 
2.4089285742 5.8888181547 -8.409181327 8.7346412514 -2.4373315989 -2.6154326002 -1.8996723044 6.5396005944 1.4698461605 
7.4617260687 2.9158108536 7.9207478611 -2.6520182703 -0.90443969574 9.0395444414 1.3769455372 -7.7849345164 -5.8068439652 
-3.2840266858 8.6147672061 -4.6030959854 -2.6828850038 -1.103624608 7.6510820063 6.0786600699 3.3024365673 -7.0171965125 
5.6529321609 4.5592619102 -4.3137888238 -4.2914295002 3.9370422304 -4.6370330578 -3.3597527653 -0.9958060712 0.69612067772 
9.4803791919 -4.5147610705 -2.5329497535 -6.8541663311 9.6985800985 -4.9268978348 -2.5327317445 1.9290018885 -7.1359728456 
-6.0429435746 5.8017639229 7.8547332458 5.6805509273 2.8132646605 -2.8075578637 -7.1412650888 1.6556803788 2.7658548079 
6.0288902465 -1.3691859953 6.5385937569 -2.2418501923 -5.5494096606 5.1576396244 -1.4114832611 2.4422530123 -3.2472615607 
-6.3226126121 -5.0017844831 -5.4442204994 5.6035265631 8.6341400473 -3.3639989498 -7.1906576666 2.4678980361 -2.5863621652 
-5.6715370175 6.2419522898 -9.5694273062 -1.5332501856 4.7788728844 1.505045151 5.0988396449 6.4541299173 4.2380365288 
-6.283241609 -7.1859986984 -9.8552307092 -6.5159559957 7.2645353986 -9.8419594509 3.9218670629 1.3800447417 -2.7667464891 
3.5781747874 -6.8292301977 9.5669533898 6.0801137118 8.1570126167 2.4384877914 2.8797461766 -1.8549703886 2.9948104597 
-1.6458202102 3.0669047119 -1.2629767831 -1.4572821382 -1.1481803531 1.4119187697 0.9555742109 -1.9177352265 -0.93671410954 
-0.90416221599 -1.4065112403 -9.505369291 2.3256202621 0.40131882763 -2.3049247279 5.9955035162 8.2051058793 6.5730953019 
0.97102029973 2.4988148677 -6.8383754383 -3.0977446196 6.0216108913 -4.5280927736 -0.48292158886 -2.6278853223 -1.0231093202 
-3.0073959504 2.2883403342 2.8016193645 1.4403916688 -4.369730805 -4.4678050912 5.6080276392 2.0321885888 7.7115673847 
-8.6767279024 0.65400431702 -5.5477837126 3.332405813 7.2291945242 4.5853041848 -8.3212234315 -3.8321577818 -0.19536129646 
-5.436987061 7.7922899365 -5.5767853296 0.55038173349 2.76566402 5.8608671772 3.3072707097 4.2252207036 3.8845510297 
-5.2449587224 -4.6606388545 6.4536471482 -4.5869955924 -1.2556821987 5.5542751549 2.7387959696 -3.0655554816 -0.38481422922 
2.8534033248 3.4196112811 3.6041896941 5.9023670709 -7.1916791886 4.1152595114 -1.3395405969 1.5773745227 3.1946246091 
0.41349225776 -9.4263950127 4.4287793326 -4.0435320604 -8.877486226 -6.5244081637 6.9573026675 9.7088209179 6.6627398646 
6.3103309044 -8.318938138 8.0634110761 -2.0456485518 -2.2721203875 7.8937089597 2.1734653127 -1.3056857326 -8.8177011099 
0.23814510757 2.3055439314 1.2506384121 4.776120184 -5.1793807986 1.9997949589 -2.2508476463 -8.9518090651 5.1214323545 
-6.599673019 5.8235108602 7.398967463 -7.6473000752 -2.6529803975 -7.4535661634 9.2064723389 4.3116893458 -3.3632244834 
7.5884083998 2.7445574232 7.9581921634 -8.3316548703 1.606996511 3.218652347 -7.6941423951 -4.3569430034 -4.5689226887 