# vtk DataFile Version 5.1
vtk output
ASCII
DATASET POLYDATA
POINTS 1244 float
-9.12218 -1.80079 0.703858 0.624504 6.30074 -6.41977 -1.62526 -7.24124 -2.00785 
7.89868 10.8915 5.43185 -3.89903 -0.4653 -2.47706 3.05296 2.00706 -0.231531 
0.00183763 1.67087 3.65126 0.362946 -2.33451 1.58388 -2.09856 -8.51794 18.5379 
-13.182 -16.8848 3.23657 -13.9078 2.67665 -0.162716 -10.7877 -14.326 4.34459 
7.24404 13.8697 5.98663 -12.0393 -15.0886 6.77881 -13.8412 2.23305 8.78807 
-13.4806 -17.7232 9.57954 -10.442 -9.18727 -4.92155 -3.28215 15.2229 -9.13896 
-11.1856 -12.3696 -9.18909 -7.64941 1.40542 -7.43351 10.5143 12.9816 10.403 
-17.5359 4.67633 -17.6427 10.5652 -2.7411 10.2947 -8.11433 7.4845 -8.20718 
-8.75178 24.9706 -9.37017 -14.5364 4.87869 -12.8179 -15.6794 16.4652 -1.70737 
-5.67936 7.77977 10.7983 -18.7421 -2.55868 7.95476 -9.57501 -11.4961 -3.35744 
-23.1239 4.01113 5.1269 -9.36707 -11.3491 11.9777 -20.5341 0.516213 6.02309 
-7.00384 7.94237 -2.63567 -15.6306 15.8905 15.6508 -11.7213 4.72952 19.0394 
-18.2651 8.64077 -2.24258 -6.01546 -1.5809 7.16198 -18.3986 7.54282 -7.07452 
-20.2053 6.20514 20.2145 -18.5237 0.389409 -8.15976 1.20983 1.71205 5.1947 
-15.3886 -3.6704 8.13979 -15.3361 20.7665 8.10326 15.2742 -15.7307 0.150412 
0.301213 -17.2429 -0.212881 -3.36263 -10.8861 13.291 -9.69053 -9.79076 -0.768109 
3.528 -23.7924 5.55248 -11.8671 -10.4198 12.1737 -6.33721 -16.6903 -0.16805 
8.98198 -9.37253 -2.88326 14.8697 -15.8144 13.5216 12.8245 4.45859 -19.3535 
-2.22306 10.8852 -14.9165 8.55229 -0.186939 -4.44228 -7.77025 7.59136 -18.3934 
18.271 5.78849 -21.5093 -8.11741 1.5389 -18.1337 5.07581 0.580647 2.02173 
6.08515 -3.51629 -16.1038 11.2096 18.88 -14.1 3.24944 7.94597 18.9996 
-1.89863 -3.75322 11.5361 -5.84939 -1.40553 -2.60113 6.64275 5.9766 8.29347 
-10.0884 -7.72081 3.03044 5.38992 5.22323 -0.70395 -6.12906 -1.1674 12.4636 
-1.13654 -8.30428 0.384892 5.11889 0.753875 24.6081 8.82063 20.7535 7.43161 
-4.84279 10.4987 -4.99987 6.78759 4.04472 7.1958 -6.1541 2.60581 -6.76888 
2.71385 23.2568 3.28229 -4.60533 -1.24705 -3.8248 7.91324 5.45172 8.39834 
-0.522314 -5.31375 -1.22993 2.52241 22.0365 2.01188 -7.70864 -13.6171 -13.812 
12.4666 -5.00208 -12.4617 1.91411 -19.6204 -8.27612 2.54911 -1.87336 -21.3692 
9.73892 -21.4801 -12.234 7.21352 -1.09006 -21.5829 6.66398 -18.8911 -9.12208 
14.5242 -2.51457 -18.7685 9.13573 -18.2765 -11.21 -5.05712 -17.4714 8.71567 
12.6343 -7.60475 14.9881 10.0409 -13.2821 -3.6118 14.3771 3.46143 10.079 
4.84372 -17.2042 -2.39206 -5.26914 3.6244 10.843 -1.92283 -12.5397 -2.80371 
-3.49868 4.04234 5.33944 7.48792 -17.5896 11.2581 1.27981 15.0629 -18.6674 
12.2573 0.164697 -16.6986 -0.210992 11.1623 -3.50147 6.77608 2.08974 -18.3105 
5.14065 19.4655 12.6636 3.43747 2.52683 -18.5348 9.59991 13.3262 -2.98173 
-4.33663 2.05062 -14.523 15.7198 8.65794 -15.3376 6.18676 -7.30147 18.2911 
15.6711 -1.50974 -0.139296 3.66956 14.1199 7.82517 10.2282 -6.09916 -6.66362 
6.54973 -9.34323 14.6152 -0.33688 -4.84722 -5.85186 5.9164 12.7848 5.91079 
-2.823 0.50606 3.383 24.7967 2.98281 5.06872 8.99174 0.187859 4.10724 
-11.007 0.608301 -0.838947 8.51639 8.28111 9.69257 5.37631 2.33778 -5.12844 
-6.3375 4.88607 1.82784 0.61952 9.76762 19.2584 -0.327273 12.2815 0.940501 
-8.62701 -1.55988 10.1966 -9.97597 0.395853 11.887 0.878765 -6.55478 -7.05913 
-14.9524 3.24917 1.74285 -8.64263 11.4485 9.20114 8.61011 -5.76981 0.568758 
6.93133 6.20411 14.2409 3.28265 4.04728 9.70633 3.66935 -4.764 15.1825 
3.5789 -3.94895 -5.35036 -1.6444 4.92381 3.76818 -7.30221 -3.21901 15.5258 
0.294931 5.14855 -1.78453 8.11721 -1.42679 0.834604 -7.84779 7.32572 15.1177 
-16.3045 8.65798 13.104 4.27522 17.259 6.12913 -5.19595 -8.15335 11.8666 
-5.27011 -3.83353 1.23483 -5.62119 11.536 10.1521 -14.1199 12.0429 0.797613 
7.20269 6.93154 -6.8385 -6.17059 3.65977 13.375 -3.18968 2.08141 11.0811 
-6.7773 -2.11033 8.64927 -7.45496 -10.5017 -1.84984 6.83428 19.6725 1.15901 
6.60834 0.337987 2.02847 10.6106 9.95528 5.55874 6.96012 13.715 -3.62689 
-1.87038 -1.81829 -2.53087 -1.81305 4.68095 -6.98967 8.03659 10.6935 -5.7547 
9.90251 -1.9269 10.8004 6.2902 11.3547 2.59102 -15.4559 1.89643 -7.00352 
-1.47097 5.97389 -6.87716 11.3736 4.4441 10.196 14.3735 4.10057 11.2467 
-2.86536 5.86749 16.3826 -15.2803 7.01589 14.3844 -0.138413 9.90911 13.5752 
-16.6768 10.2618 4.59953 3.3312 -4.50312 9.20653 -6.73168 -6.79313 12.0293 
0.22626 -9.96596 9.08392 3.31278 -4.23978 -0.879041 -10.8945 1.8302 0.126472 
-11.4319 1.64784 8.84478 0.922597 0.0173617 12.0821 0.245452 -10.6124 1.1589 
4.96039 3.03698 15.1854 -1.21963 2.61588 -0.712395 6.9831 6.24766 19.3994 
7.27198 -0.610501 5.13469 -10.2179 11.6144 10.525 -7.06198 -2.08452 18.006 
-2.09918 -0.980786 0.844169 13.5792 11.5839 12.0058 9.43918 5.57357 19.3745 
-0.353764 17.8316 10.5601 -2.04149 -2.46228 11.7167 4.1343 0.174105 4.57212 
-0.306909 12.2698 -3.54634 -16.0084 4.37016 -4.09018 9.59781 8.24673 14.7382 
-4.43264 2.20771 1.09054 3.23642 -5.23546 -2.67019 0.54621 13.6634 -0.483403 
3.90195 4.31955 9.70352 9.26055 4.10647 11.3514 -4.05475 12.8404 3.93917 
-2.5773 14.4093 19.3291 0.158215 15.6538 -4.18762 2.6668 6.46576 15.5566 
12.7963 0.735903 -4.52219 -11.6581 -3.01952 1.80368 -2.89207 2.50775 -7.40321 
6.74006 7.06465 -2.70768 -6.26195 1.76193 11.7098 -12.4698 5.52041 4.54481 
-3.02108 4.72224 -11.3342 10.3868 8.49331 10.9219 0.188769 5.99002 13.6512 
-4.28439 20.5539 4.62307 -14.5747 6.13128 -1.03011 -3.49389 2.7404 -7.06169 
6.24921 13.3791 -4.28715 7.90877 -0.350887 2.22283 -8.42467 18.1639 -3.33867 
-1.69309 -4.46934 11.608 4.59326 4.46286 -2.05331 -4.50799 14.4697 -2.63667 
4.25735 7.77113 -4.1451 0.581105 3.75272 -7.71938 8.76389 9.72387 10.5652 
-4.10686 14.8787 7.19593 -15.0426 5.24007 0.440289 11.886 8.38751 -5.48391 
-3.55534 15.9948 7.4539 6.22225 15.4994 -1.21314 -6.74307 9.02384 9.42896 
8.91175 14.1359 11.8138 -10.5193 12.3624 11.2208 -5.12224 -7.58643 3.28962 
-8.58446 16.1166 -3.54165 1.19416 8.38904 13.6198 5.55455 -3.05118 -2.55113 
-4.82096 -3.49773 -5.12058 5.66322 -4.9304 10.4279 -7.54087 -4.04692 11.4887 
-4.02809 8.56287 21.0591 12.2101 4.46307 8.96055 7.11796 13.1155 0.731344 
-6.03835 -0.457501 13.0335 2.48967 19.3452 16.6566 -5.02681 19.0793 4.18069 
14.7362 7.61413 7.02536 -8.53317 11.7165 9.20773 8.28585 14.9495 10.4198 
-1.20185 14.0077 -6.97975 -11.2226 4.70964 5.74542 8.74535 0.0224198 10.665 
-1.63004 4.80572 -11.8119 -4.14222 11.3315 12.5781 -12.9532 2.27111 2.75008 
-0.0253647 12.2852 13.1057 7.27593 6.50368 -8.0762 5.54113 -4.458 -1.09656 
-7.01941 -0.0128815 2.19554 8.05194 -1.1688 -7.05332 7.54385 -2.01846 7.29652 
-2.39948 8.20668 5.04848 1.41868 -8.94167 13.1255 -16.4462 3.26583 10.0375 
2.24807 8.68336 -3.50591 -6.2254 -10.0266 2.32748 5.87483 7.6185 6.43183 
1.44419 -10.1589 -1.99544 -7.24822 7.18827 8.11325 -2.48149 -9.69508 -0.119933 
-1.7788 7.40345 -8.03702 -3.61017 8.49757 -5.36879 -7.0974 12.3197 7.57078 
9.63489 0.650128 -3.00197 -0.420159 -6.7263 11.9408 -6.89143 10.687 4.97901 
-2.77489 11.2394 20.8316 5.03092 11.806 1.75953 0.104566 -7.77044 -3.80203 
-16.0205 -7.04467 4.68799 -11.5583 7.61222 -1.76248 2.05026 -8.87456 11.8963 
6.49849 8.67044 4.79057 -8.22069 -6.7437 6.67169 1.17073 12.0132 10.0819 
4.3284 0.145953 18.8903 -3.78357 -3.16195 3.43006 7.61309 -0.214522 6.05343 
7.56895 -3.84452 18.8467 -4.28733 7.89029 -0.363324 8.49069 -7.30678 4.83256 
-3.14269 -5.95317 14.5856 -10.5989 -3.23131 2.43536 6.87974 7.43378 -1.85148 
-2.2794 -5.07091 14.9104 -1.213 8.42112 15.9399 -6.52721 -6.98269 3.09522 
-5.81382 9.17256 7.72673 -6.02422 0.29041 -5.7841 -6.22216 2.82099 15.0835 
-16.8754 7.4783 4.47515 9.09192 11.2534 3.76727 -3.68191 11.0276 -3.08247 
6.50165 -6.15313 0.977251 -8.28402 2.93013 -3.98098 -3.12166 15.0446 10.2329 
-9.91547 6.47638 -10.1654 12.662 -2.31152 -0.460689 -1.52739 11.4151 14.8111 
-3.47336 -1.4172 -5.06241 15.9493 -7.29074 4.55261 6.54147 -1.9636 -4.3939 
18.0691 2.82494 9.83233 -6.8576 7.25812 10.3904 8.48746 3.01307 0.291952 
-2.94897 1.54259 10.8304 11.1453 8.10611 -1.05306 -4.76779 7.5024 3.09448 
5.30416 3.31464 15.2163 12.8434 -8.15638 -1.90991 4.0427 2.62875 9.13401 
14.398 11.2309 16.5229 19.1191 -4.90091 3.01745 16.1612 12.868 14.172 
4.2242 -0.584462 10.6116 8.2007 -4.5698 -2.07141 3.54818 0.0559781 10.8856 
8.10509 0.820812 9.55884e-05 2.9641 -2.01136 15.9402 9.59616 3.40384 -2.56953 
25.1771 1.78442 8.69334 0.599706 18.5129 11.3134 8.56909 6.03883 -4.01524 
11.8024 20.1176 11.2008 9.86326 -7.69523 6.86089 7.39021 -8.40521 3.84429 
4.01715 1.38735 12.0258 0.127326 2.30286 0.135226 16.3747 -0.290133 0.46406 
14.23 -2.97722 4.52904 15.5119 1.73558 4.98946 7.70382 -8.57904 5.80757 
7.66677 -7.50198 1.23423 10.4516 17.1723 5.15527 13.3592 21.4256 5.0321 
2.4109 19.9183 4.29075 11.3116 13.7805 15.9006 1.05044 9.17449 8.73862 
7.88101 6.45603 -4.31566 12.7701 3.84352 -10.697 14.3633 -2.12555 9.5659 
15.2787 -2.97197 11.3132 -0.92439 -3.09768 12.9082 7.52085 7.76375 -3.98513 
20.6789 4.34489 11.2817 23.0021 4.91454 7.48005 8.15538 8.06615 14.4307 
-0.936217 -1.01413 0.44884 -0.297994 -7.3548 17.288 -5.38539 3.97189 7.07099 
13.5506 -4.67668 9.21304 14.8566 -7.96989 8.22471 15.8739 -2.53772 3.22442 
-3.58068 1.32548 6.24348 1.76856 0.527797 12.9745 1.92632 0.687575 -5.92148 
8.0378 -6.89361 8.91333 18.5156 -3.57364 8.02151 15.0519 1.67288 16.5067 
9.75801 3.25155 -1.66548 17.6404 2.29332 20.6857 16.4968 5.53835 6.50307 
3.17306 12.1086 17.6162 9.64043 0.448221 13.5218 5.31892 -0.841172 -0.699028 
16.3807 10.9223 -1.27455 13.3374 4.69967 20.8518 14.161 15.2145 13.9451 
1.60771 8.88251 15.5803 -5.06239 4.8016 5.49274 13.3021 9.35478 -0.323008 
7.34107 -4.66299 14.425 17.7011 11.7197 19.4966 9.62074 6.29894 0.457562 
19.8326 2.85257 0.909227 7.12169 18.8878 2.85966 14.3394 4.91873 15.8392 
-0.786199 7.55529 2.39038 10.7775 15.3377 13.658 21.054 9.52628 6.09506 
10.1137 13.6863 -1.95505 15.7267 7.10587 19.9707 20.1888 0.353458 -1.98466 
-0.604362 5.75652 -0.745739 9.01568 5.90326 -8.56906 22.1976 3.85638 2.2276 
[...]
CELL_DATA 2484
SCALARS scalars double
LOOKUP_TABLE default
-1.998367116 -5.817187895 -6.9348757253 -1.4399387461 2.1729152275 -9.3115711712 1.4604588495 3.2675361827 -3.4762175746 
0.43323803637 1.0549983476 1.8486664166 3.0118402696 -9.3741287141 -1.1182614704 -2.1920329227 0.99781841507 5.473439445 
5.2713473527 -7.0893137303 2.4263968909 -2.4712827915 -1.5898409011 -7.8538508285 -8.071815548 8.8237596332 7.3418053749 
-9.3411556329 8.1061370691 9.1437875068 8.0828555983 -8.0906608582 -8.2024632275 9.6531024312 -9.987019092 9.8454140276 
-5.4769001308 -6.5797912411 -7.9433243517 8.1301959878 -4.9139380866 4.7584099371 -0.45474834364 -0.9507075269 5.5252470677 
-9.2941991964 7.5592092555 -4.6845255892 -2.4150175285 6.5956077579 5.3567141678 -3.6843773315 8.8298943261 -1.9977126018 
-0.0042319001734 -5.3684360701 -6.3950452302 4.9159448691 3.8158892406 0.27246300764 5.1086822824 -3.1239726223 -1.5854385549 
6.7219268683 -6.5099184907 2.9437199358 -2.9899793371 -8.9766167034 1.5000601213 4.5856474796 5.6681729271 -8.8947991147 
8.5971321222 4.2640237344 7.2778857738 -4.0625169086 -5.0789471581 -4.0379945718 9.3006558176 -4.7161737107 -3.5308044016 
7.91251589 -6.9951004091 3.6412900935 -5.5628997164 5.632029485 2.8849811654 -9.036262395 -4.4260236785 -9.627681561 
9.7191835469 -6.6987468867 -4.428233525 4.4906821373 7.1374812966 9.0572655156 -5.6338342901 -6.3675279109 7.2221681737 
-8.6344954092 -9.1249639172 -7.9116950192 9.1020819174 7.1451962749 8.3058574338 -9.0803151165 5.7773109129 -7.6525196168 
-9.884988133 -9.9162268542 -9.6014298446 9.8923077356 -4.4854194376 9.7683005451 2.066511608 -2.1856167223 -6.8759800629 
9.7082829757 -4.3782954576 3.0209185083 0.54001476045 9.5349592759 7.19310978 -4.429593479 5.3458939609 4.8427388597 
6.2670352881 -5.6996972731 -6.7981638092 -3.5672121679 4.728489987 -6.398356976 3.7943658271 3.6663327632 -2.9247071783 
5.4513653699 4.7316214822 -3.9540033747 0.79434998622 -7.7958192296 3.3779698703 5.5126050193 5.6467190067 3.999251695 
6.0117709705 -4.1054313577 0.22524668561 -1.642966332 -8.5303927761 0.87854137541 -2.7873967754 -2.7821059112 -1.6098765471 
-7.8295417592 9.1050029011 4.3660044427 -0.70269847519 8.1552316362 9.7003306318 7.8774971448 9.1627031235 -9.5925272465 
-7.8174586126 -9.8198549217 -9.2146644178 -1.6512136407 -4.9311844941 3.0423603252 -5.0671890393 -6.5777362484 0.95877689282 
-5.9827635935 1.8610534838 8.1543138633 3.14387606 5.8138495032 0.47605583433 -9.9550545293 0.18699300566 2.5212853738 
-0.68022353008 -9.8964121925 -5.4689645969 8.2328261861 -2.0857508804 0.010707986121 9.8490595859 7.2300184812 -0.60597292192 
-8.2520140739 4.1877817477 -5.678441856 -1.5166949333 9.9653842311 5.6787100961 -1.5920544388 -8.5247732446 2.0356309106 
4.679131787 -9.1030509753 -9.1248942554 9.0750003006 -5.3902927694 8.4811064989 4.0744815462 -4.2323065669 -0.82181995133 
-6.0841562134 -8.4911946575 1.9417819093 0.48360078033 6.0629710621 9.4347758385 -4.069418853 -4.0912065245 4.4354846134 
-2.4276479589 4.0676337139 6.69232675 1.5263242087 -5.0432690395 -9.0199595607 4.3299345453 -6.4153416701 1.8058794992 
-0.23246818547 1.7609222788 -9.7258717684 -6.3484683028 9.8001051208 9.6233318792 7.4230749215 8.3805043734 -9.725458602 
9.0730174173 8.2481446241 7.2929152867 -9.09566023 8.5336391625 9.1408956291 -2.7411475227 -8.5471674415 -9.662382086 
-8.3091781702 -7.7221520335 9.8042502073 2.6725061128 2.314294694 -5.8760178102 6.6920987697 -1.0773620014 -0.23508127656 
2.6500387354 6.4272874799 -5.1633966731 -2.7488587213 4.1405798369 5.6201676763 -4.3746719965 9.279288586 -7.5300531146 
4.4895453759 -4.1288306861 8.1134161251 7.152195877 -4.5120131539 0.11538154359 7.0485162955 5.7889153885 -4.6717694515 
-5.764189732 9.8097303788 -6.1066499713 -3.5973260837 -6.3038074879 9.3285348172 -3.4207617413 7.2929153873 2.1880355221 
4.324725507 -6.0577616547 1.7645926182 -1.0956462471 -7.2965842474 -7.0227890441 5.2421145206 3.1127908266 -9.3899239959 
-4.6256318233 1.0956190224 -6.7655667219 -9.0032267188 3.9315757514 7.4619228707 7.1286350119 -8.7734087208 -3.0655868086 
4.791124217 3.9744762568 8.5052335008 1.7051312993 -5.1176073459 -3.8549774067 -1.7507734571 -2.0635975811 -2.597365057 
8.0919514642 -6.0155854349 -1.974431592 2.3611223948 0.62751744238 6.8706917226 6.0895837941 -4.2875988344 -3.2658954584 
9.8124869407 4.1570182214 -4.1119188664 -5.8471027435 -3.4314116455 9.8274574834 -4.1950064279 7.7904464653 -1.3324866975 
-7.6262072077 5.8398857655 -5.2696107587 0.54948723219 -1.5850562075 6.2854812682 7.8364914492 2.234109909 -1.4817679596 
9.8590055656 -8.8595849542 -7.0903581105 9.23981664 5.2407154027 4.3252534548 -1.8153661832 0.18786827743 -2.0286623148 
4.6888185906 4.7855689424 -2.3675213636 2.955364619 -6.0415719673 -5.9480574988 5.4727808249 -6.3934081211 -5.969551294 
-4.1132824764 -3.3239673737 -8.7802887475 -4.1531702476 -6.1490999139 -6.9733441258 4.1935791181 1.5418951015 -3.9946126936 
-9.7404554368 -2.1321925061 9.929026094 6.6959986929 8.0685029622 -7.8242053116 9.108383249 -9.5973958935 -4.972450994 
8.3247542695 9.6396017117 9.9336784555 9.7731688979 -9.6017869304 -3.3366967009 -8.4722413149 -7.9283094772 8.0729620585 
9.503120596 8.5386090324 -9.8488005449 -8.7073425166 5.4310470147 4.8523421636 0.70880421464 -4.5553155002 -1.7580490674 
0.68405839218 -1.4479608766 2.3234086204 9.6487226366 -0.91692754145 -7.3350445456 -8.7200962603 9.1489514949 -3.7728172245 
0.4307645255 -5.2562535333 -8.2766426155 8.531156968 0.25394850833 -3.4572098378 -2.5757405455 -3.0265769318 3.6363667844 
1.9280605334 5.133709568 7.1291006298 3.467699172 -2.3348378798 -7.8693912561 9.7667748112 2.8000556534 -8.1394519698 
4.5272793841 -5.7862263613 -3.4456721763 4.9752036952 8.0454510325 -3.608371645 5.9849679538 7.0255019109 -2.7676334885 
3.6086926713 -3.6352067045 7.5917872296 5.5238017951 -0.2709654368 -7.5589199201 2.8322294417 2.7829425092 0.75063767225 
-9.7914817593 -2.3588061495 -4.2457921396 -4.2529010883 -2.422376405 6.1069661653 6.6206467517 -9.408159544 -7.2333784177 
9.9133795955 -9.0931230389 -8.0041178817 6.3040791849 8.3273164624 9.3352974843 -3.2156774377 3.8782856325 -3.8119879687 
-9.8599607837 -7.8297517267 3.8743507396 -6.8071403929 3.4545476361 -9.5092815759 8.4015782087 5.5024225573 4.8850980568 
8.2444876002 7.1141878363 -7.1529127594 -8.7971615653 -4.9103515 6.4936460196 8.8765126797 -5.479140301 -1.9485382065 
-1.3157056475 4.034193988 -7.3323054692 -2.4697810902 0.30536905014 0.59958792228 -5.2749688106 0.092496603755 5.9264457096 
-8.773920101 -0.29863340965 9.3351726971 -5.8925115308 -0.10725740818 2.346344754 5.1914975833 0.97681923591 -7.6668361879 
1.7048180709 -1.0574674154 6.3031460302 -9.7506426351 9.816360699 -9.736282194 8.6862052661 5.0187160229 2.0178815837 
-8.0966501062 6.447141049 -8.3875488505 4.8409361905 -7.8089281281 -4.3127130777 8.8141301084 -4.7422596954 2.8048559299 
-9.4968374113 6.3009637104 8.1318700778 -6.3263076598 -4.7419577995 8.9059606899 9.3896926682 -9.9439733737 9.678784275 
9.7759719808 8.1029527348 7.0154226025 -9.1158194923 9.8744208571 -9.9489002412 9.9247027908 -9.4965452595 -9.7570778982 
9.2885617863 7.005956874 -1.9000169196 -8.0758646513 -6.3702630076 5.4905667518 9.9911684262 -5.5904203623 6.2271216898 
3.092395361 1.3385107169 -6.8344919297 -9.4175088518 3.4212011699 -5.4715041229 7.4771222415 1.5159751643 0.51528683687 
-6.5643460705 4.8630766526 -1.7750717322 -6.0193733358 9.0966450057 -0.053622794823 4.2021287469 -6.1912853806 6.7228724512 
5.6637776061 -5.7993807936 1.4721683545 8.9175681214 -3.9613675119 5.9493681139 -9.4956484982 -9.1502352941 -2.5949229763 
-4.3239098014 9.5165797969 -0.18615307146 0.060087490808 -8.9735672385 -0.56813954807 4.69884544 -0.17349340559 -6.7268092114 
5.1215662343 -3.3855139805 -6.4475545206 -0.92833588883 7.9417465094 -6.6839743552 -7.264981177 -8.1030948321 9.4775007133 
-9.5013277671 3.1376809175 0.60920937817 -2.1793295207 6.6485719257 -0.73434244459 -0.5375093667 -3.1217833012 -0.39441852329 
6.2585201153 -5.1953928556 6.5385774827 -0.23519296152 -5.1520731773 5.9375575355 6.4304352487 -5.4130357947 -0.33622375148 
0.0058679881154 9.8430029179 5.8347618148 -6.1689960433 -2.5793641758 5.7425327632 0.4891630242 -9.2895778459 7.4297771595 
0.82229701525 -3.5657557639 3.0728502177 1.1003656963 3.6587976233 -9.2027155026 8.7479576477 4.9089620045 -9.198368177 
0.48959921464 -4.681859147 8.4858170788 -6.6766471444 5.1195539965 3.4873203719 5.3785830968 -3.4925912798 -4.6893726695 
-0.68449497959 9.6354908915 1.241631176 2.387440962 -8.3369222165 4.9774334519 0.46014744282 -3.0191611255 -3.0049050409 
3.9625974036 -0.52462301074 3.7056815487 -4.7884640156 -2.8229968302 -6.0587879805 1.5373668204 -1.7800703698 -6.481168216 
-5.8015965143 -0.85445028048 7.6676548561 8.1449678886 -7.1474737155 -9.8845249674 -9.6563384126 -9.964992839 9.991370407 
-9.2680568936 -3.7517562932 3.0286319486 4.8365083874 -8.5277511994 -9.1322900721 3.1697795069 8.4627740687 9.2333398497 
9.9276886255 9.6638888359 -9.794572083 -7.3057860476 -7.1072938864 7.4907645466 -7.0550071775 -1.3801149936 -9.4711899404 
0.95057535217 2.4388822631 9.3015288408 8.7019904043 -8.5645779263 -9.4811979793 9.415691733 -5.1246827727 1.0752480543 
5.0655118879 6.2525608112 4.2998615367 -0.62013508745 -2.3773737828 8.1012425293 9.8929594543 6.408574902 -9.0883747184 
2.8257622065 0.17070612707 -6.3870225641 -5.4488856187 -4.5771740826 -1.9481339825 -3.9160988112 1.5703738379 2.8935056997 
-7.4146912008 6.5965345754 9.0950193218 2.9968443432 -2.8199651755 3.8374379751 -0.97541551376 -6.7241952017 6.4441542972 
-0.77978669528 -1.689531193 9.792742159 8.6239911861 -5.0607738057 -8.6671587163 -7.0558442888 7.8539145432 5.0176209797 
-6.1035333762 -3.7659608418 -8.7791271113 1.2932682145 6.1041226444 3.1666875294 1.3080438676 2.3870777925 2.0015899945 
4.2820789865 3.3700454515 9.055643664 -7.0503954838 4.968912066 6.0391290956 8.820079467 -6.920360526 -1.1236597351 
-7.9140919265 -6.9826832904 2.9971404785 -0.51494532732 -8.5297823173 -0.36941239765 -0.58580744864 -6.1307802154 8.3823040616 
3.4392786864 -8.6039747717 2.6783582589 7.5280601744 -8.7453824099 -0.84790082513 2.2395924973 -8.3807944677 -4.8890252175 
2.3046620842 2.8466311064 5.6179437168 4.3059638478 4.0898120969 -7.8138432343 -1.2009005985 0.85479674161 1.5076063971 
-8.2243583017 -9.490737932 -4.1047874774 6.1244462721 6.2870774132 -6.1185673103 -5.6188149106 7.8994025177 -4.3611653552 
-0.96358501831 -1.4339847508 0.90735978694 9.6992890061 2.450432313 8.3770485791 -8.3259793433 8.0086776829 9.0785657302 
4.3176138792 -7.5934855041 -9.9907088398 -0.48780119063 -0.18233993832 2.9889463239 -7.8220788771 9.3242342857 6.178061543 
-8.588394215 -9.9574315079 -9.8277185771 -9.8400220226 9.9384474786 3.883676681 6.4224089986 -8.8594903317 -5.4956963534 
-9.8707034598 -8.9627063848 9.8069916107 9.2718720772 -0.74695400133 -8.5970016707 8.8673589875 7.2547189755 5.9031604233 
-1.8266668591 -1.1113949098 -4.867029508 8.8602098602 2.7250406591 9.7589615866 -8.2782139023 -2.6692909376 -9.1490076047 
-6.108548358 7.4333298913 9.3829215236 -6.1086112896 -1.8440793867 5.207529716 -1.5181600701 -5.1704917801 -9.0169284531 
5.5241246191 -6.0225413577 -8.4695213148 -1.6283067398 4.156509001 8.0558659945 -9.3500246749 0.58823756161 8.0354280588 
-3.3674902269 -3.9429070045 2.3574297983 -2.4798397784 -1.1301243673 -1.4142348565 0.14181840192 -3.8769661174 -2.252648699 
-7.8838377597 -0.23819518084 -0.71062090489 -1.1066950499 1.3358520086 -7.2045710561 -2.5522530213 0.78763425383 3.9603491663 
1.8721229066 -0.34915245597 -1.8315957591 -1.5961331405 -1.1672688294 -8.0067924535 6.5518748487 1.4574256228 7.0504541479 
-9.4984309227 -4.3269974585 3.0373036523 3.964174934 -3.1546164631 4.3507438726 -1.6702509679 2.1048915574 1.7681295088 
-9.4458578484 3.3942894922 3.202425279 5.3216084657 -9.7201786159 -8.5209025055 8.7411595799 8.7309238794 8.3707362746 
7.1762405071 7.5042033214 -7.4388716367 -8.1346335389 -1.8210565281 5.0867426183 5.7745320697 1.3539917404 2.6227662785 
-4.2211265606 -2.5002430002 5.5235961105 9.0835992812 -4.5496008642 -6.0175688017 6.2984754758 -1.0727349198 -8.5071715895 
-0.42313411278 7.5214824639 0.090519708443 -7.8176412588 8.2982042921 4.3579287273 -6.4121501224 -8.7122847442 2.0474534928 
-7.3290965502 -1.724924424 -4.9808631877 -8.1699574338 6.7752364065 -7.6611913158 8.1725476561 4.6685946433 -3.6593313428 
2.2140816877 7.4476160943 7.5242104684 -9.0872128689 -8.9513176789 8.3743371377 2.4579724489 1.229685661 -1.9738352781 
-9.5646850233 7.916806239 -7.1692134435 6.2773595909 -6.8632249526 -1.341750392 -0.79227229517 2.8167559234 -2.9452634071 
1.9316769925 -4.7469292443 -0.17028791722 4.6465798036 -3.5791945994 3.0019342885 -0.50280557991 2.7043026318 0.92410777795 
1.6025939016 3.475844205 3.7794295259 -3.5681803137 0.16575780299 -4.057527918 -4.3100639407 6.226383277 4.9340143539 
3.4696102658 -1.5149798095 -4.9722195686 3.5380136477 -3.857514534 -3.0524511326 3.0465198492 9.4025500603 -2.096636095 
7.5241413377 -8.5079566006 -2.875603257 -7.3351639758 -0.45419394319 7.7329634059 3.7783774004 -7.1017434703 -0.78714287486 
0.10819332844 -5.289508307 5.6288932838 -8.2611716186 6.7921796861 -4.0211387578 -7.1509999673 1.7460886517 3.9057334341 
-1.1110251584 -8.3805792669 1.2041167785 -5.8237679895 -1.4875851557 -2.0994397255 2.6904152835 -2.847720431 5.5588545711 
5.9607247867 2.4755472045 -0.30809039034 2.8365670961 -3.2831794693 -1.0142539753 -1.3264612143 4.9281428436 -1.5317751514 
-0.73125559258 -3.4766114332 2.2899841107 -9.0772574813 2.7034122788 1.5765530056 1.9915751497 -1.6097606211 2.6357472518 
8.8871148705 2.1479122161 -8.4905491608 0.83668319534 0.66575665565 -2.1808192331 -5.8588288653 1.5698104304 -5.6977172181 
-5.5451551232 8.7731929721 -2.2891225801 -1.3542175646 -2.7402143067 5.5404259967 -0.054710116128 -0.67828858219 -4.1125418284 
4.8879964197 6.9334100561 9.4053058837 -4.3192162795 -7.5385930894 5.4051391101 8.0641753791 0.73655996333 -7.5270321308 
-8.6365113371 -6.3531835803 -6.7492244741 6.719198075 1.6870204616 6.7626311556 -9.121681067 -5.651893133 4.587629156 
-7.1002121761 -0.57256184635 -6.3166114943 7.3426586127 -5.6873146514 -3.2621839431 7.0324453006 4.9238670343 7.3955126297 
-0.74123868427 -8.0018875591 -3.6120898251 8.6733753133 0.82869827155 2.5304934271 2.1523826572 -2.0475058059 0.37034205174 
0.46644306311 -2.8364336024 2.703385467 5.9975970739 -1.5282747202 -0.14927928057 -7.1353440032 -1.7099100992 1.3897423437 
-4.1230637791 0.90900003907 -1.3276153831 2.3421399108 -1.151453516 0.25447891445 -7.5921139477 0.19677858807 -0.77021131148 
1.3877840644 7.2364966009 -0.28304787917 -1.5585594751 -0.86041376339 -4.4367210567 4.4640139947 -5.8485294983 -3.5890240007 
8.5986876291 -3.0864046988 -2.4469377564 1.0400253521 -4.8148049693 1.1618755713 -6.6062977419 8.8546926791 -4.7124374171 
1.9262891743 3.3889658029 8.6923762762 2.6255304702 -9.8967917811 -2.5949754762 1.7471203273 6.2226369323 -0.83539585783 
4.6582821771 0.20915585467 5.8025722052 -4.4004924465 -3.0284996472 4.7797771424 -4.956189253 0.54841601521 4.1964693721 
5.7768534846 5.432482313 -6.6558747453 -5.0079694841 0.72926788113 -6.4146553253 7.9778929138 -4.8781903009 2.8967899025 
-3.6867597652 9.7490256461 5.2724769624 -5.704185397 3.9058294479 5.1150936768 1.2804629781 8.8122935359 1.6988049865 
-8.8460707527 2.5231967643 5.2982302178 -5.4210976011 -9.6188898698 4.0819378907 7.4816027195 -3.1668077779 -7.6893988848 
0.98322417121 -9.6414823394 9.1630054834 9.515175345 -4.9691252039 3.4631328502 3.0596838331 4.0249005654 0.82192871567 
7.8944217441 -4.0406960852 8.1057395593 -8.1325066369 -1.1026263643 2.9520235962 -3.0011515477 -4.4712327984 -9.5716927871 
-4.2414715494 9.1187812609 4.256329563 -9.0177705838 6.8655430158 5.194088019 0.30306770989 6.0179023991 7.0563897514 
2.8336917362 -0.62339832224 -3.0408800485 -8.0206815399 -3.6656503622 4.6519127532 6.7454549652 -3.600155721 -3.3152057243 
1.1679176753 1.6038212275 -4.3370528972 -3.3822952591 4.2264109339 -3.899279528 -0.28011074035 1.5748418396 1.7676895006 
2.6849697232 2.9585643652 -9.500010004 -9.9529662981 -4.9632176519 8.0005916885 7.5941890169 -8.3685550083 -7.8341721933 
4.2846944663 8.4730863932 -7.7426489335 2.9936769597 2.4069842778 6.40242465 -8.7793207341 6.1740959363 -3.5599918782 
-8.5551410403 1.1474986912 -3.604648648 0.022318445136 0.24461352399 -2.4086033045 2.3041716067 -0.086312298458 -0.67874493816 
3.296668962 5.2298121634 0.76843621903 -7.1595290385 9.2921407562 8.1512761271 9.3311879298 -9.9611408018 -0.7904962386 
-7.083321007 -5.2741912456 6.9938605102 -1.739352077 4.6279623444 -0.89275435465 -3.8039751999 -5.5168851055 3.493173446 
-0.0090154552775 -6.8525362479 -0.43662682617 -5.3030342289 4.8198433291 8.5469806545 -1.767015719 -4.4981882293 2.5435816739 
-0.39812134311 3.1264477338 6.9360219996 5.6818569532 2.5160856002 -5.7859498625 -2.913883323 -0.5413922888 -7.3616501883 
2.1962151927 5.7273192952 -8.515772066 8.779584721 -2.2431631655 -2.9326261906 -2.410025151 6.5037100601 1.4290720795 
7.6469821409 2.5563348437 8.0385453493 -3.1183038296 -0.94163751819 9.19144929 1.335393653 -7.8270831803 -6.0981867946 
-3.6411291581 8.6695230355 -4.2842481697 -2.3676702651 -1.1370317339 7.7033746993 6.025286143 3.4129928102 -7.0714949716 
5.7395306986 4.8554708737 -4.3058839483 -4.745643581 3.8087775374 -4.8889727525 -3.6150429113 -1.0086162927 0.63051783448 
9.4550418646 -4.1776984404 -2.5447450038 -6.7447430208 9.7243887082 -5.1025753281 -2.6588425459 2.3677776133 -7.2384476163 
-6.3947155828 5.9384571806 7.7793670769 5.794258364 2.7869987251 -2.6999359084 -6.919132227 1.4897318229 2.2581784693 
6.02224842 -1.3044761712 6.1896900077 -1.7955878986 -5.5000691847 4.8248591026 -1.3127024181 2.4472166235 -3.207689246 
-6.2091291843 -5.0484739056 -5.5186101719 5.6743363875 8.6378514099 -3.1509788617 -7.3687284713 1.9713535178 -2.5922079052 
-5.8000664372 6.0976377342 -9.6056487834 -1.2364603723 5.0276201411 1.2164376747 4.9381962872 6.8553903157 4.2778409801 
-6.6474168535 -7.3527308285 -9.85842087 -6.5256635272 7.045793447 -9.871403767 3.694744488 1.335082834 -2.9763392218 
3.8871300173 -6.9098617327 9.5295944271 6.0875402626 8.2409913419 2.5484474849 2.8200111526 -2.101818794 3.125059213 
-1.8600453847 3.1528348484 -1.2284599973 -1.6694215979 -1.2186523529 1.5748264 1.0443995247 -1.8327065502 -1.1373203255 
-1.0139437346 -1.642753784 -9.421112929 2.5486273391 0.36753717772 -2.3245721688 5.5918161844 8.0373834722 6.4979859095 
0.74285791681 2.089183396 -6.7235790655 -3.2752170527 5.7977658101 -4.4672864206 0.13553583016 -2.8519613996 -1.2969485761 
-3.006345453 2.4651252744 2.534676127 1.4928741731 -4.3687774409 -4.3778639895 5.4452300239 2.4296331585 7.5785867168 
-8.6813934012 0.42531833176 -5.4194867292 3.0398237894 7.062328917 4.2624755101 -8.352130162 -3.7652048379 -0.1360170541 
-5.4401765345 7.746554654 -5.2542655 0.83936968685 2.7114745964 5.7214619329 3.2069390491 4.0129233467 3.6898404935 
-5.113088214 -4.6202883511 6.7024728335 -4.5708523647 -1.7161130087 4.9850516504 2.9387136298 -3.1426388982 -1.0104370076 
3.0992043768 3.1705431799 3.621117796 5.9386944756 -7.3169503753 4.6312494457 -1.3287638241 0.99722836309 3.2820732127 
0.89365060116 -9.4181390774 4.0894891035 -4.1061753438 -8.9079173736 -6.4307584077 6.9031572219 9.6909477422 6.9342368523 
6.5361742376 -8.4616280734 8.0950974113 -2.4781852614 -2.5108192519 7.9089857907 2.3243474998 -1.3592087899 -9.1094505138 
0.30753444561 2.2990972427 1.3459749507 4.727473024 -5.2494690474 1.9885595753 -2.1532031297 -9.0747020984 5.1977837916 
-6.6329846103 5.9325207868 7.4655778815 -7.654663774 -2.1191087764 -7.5204086315 9.2244237234 4.51606053 -3.6399294626 
7.2076858265 2.2240961624 7.5376319625 -8.4829744951 1.9741014257 2.7063778801 -7.7850286156 -4.3746546104 -4.7957409767 
-0.69902657108 4.1942482107 6.0933004345 3.7580143944 7.7979820574 -3.9107201326 -2.4282095133 8.3339553205 -7.347329089 