# vtk DataFile Version 5.1
vtk output
ASCII
DATASET POLYDATA
POINTS 1244 float
-10.3937 -1.5084 1.04934 0.866162 7.81466 -7.84157 -1.58568 -9.14961 -2.67706 
9.3639 11.5883 4.81266 -5.40175 -1.07846 -3.09817 2.46923 2.64535 -0.55538 
-0.728563 0.803491 4.24951 -1.03932 -3.42472 0.799644 -2.53189 -9.7729 20.8652 
-14.2623 -18.6744 3.73861 -14.8448 3.74678 -1.11908 -11.6357 -15.6968 4.76735 
7.85262 14.9511 5.82338 -12.8359 -15.0978 6.63106 -14.9538 3.19134 8.95224 
-14.5636 -19.3763 9.65501 -11.5358 -10.0211 -6.95854 -2.93924 16.0602 -10.6018 
-12.746 -14.2913 -10.9047 -8.02677 1.21499 -7.62192 11.1456 14.6756 11.1351 
-19.5806 3.9501 -19.9384 11.264 -4.86548 10.8988 -8.37584 7.32785 -8.37919 
-10.6968 27.3987 -10.8424 -16.6368 3.57368 -14.3969 -17.2293 18.151 -1.55754 
-5.2271 7.86922 11.9405 -22.1404 -3.2717 9.37576 -9.37952 -13.1555 -4.59621 
-25.9713 4.16007 4.90336 -9.93535 -14.1723 12.5791 -22.661 0.939423 6.75321 
-6.66979 8.24101 -5.00133 -17.632 16.2733 16.1657 -12.6148 5.93572 20.5275 
-20.439 9.62165 -4.19401 -6.49015 -2.44913 7.89237 -20.3915 8.47192 -8.84412 
-22.2552 6.48393 21.6618 -20.541 -0.416364 -9.71916 2.49714 0.713587 5.38379 
-17.2586 -5.08298 8.69797 -16.9517 22.0737 7.32806 17.5556 -18.4251 0.717238 
-0.599075 -19.2906 -0.685914 -4.43916 -11.8233 14.5825 -11.9889 -9.84793 -1.93068 
3.79982 -26.1517 5.44148 -13.7484 -10.6631 12.6535 -8.01877 -18.6408 -2.06997 
9.24263 -9.61457 -4.07743 16.1185 -17.9112 14.0851 13.6743 4.70085 -21.9641 
-3.79023 12.2058 -15.8482 9.42423 -0.733218 -5.22497 -9.492 8.35298 -20.5784 
20.5593 6.10637 -23.5123 -9.83536 0.184034 -20.5733 4.4797 -0.267078 2.34868 
5.75195 -6.10472 -18.7129 11.882 20.4266 -15.1311 2.72578 8.65964 21.3423 
-2.99692 -4.93697 12.2704 -7.11445 -2.34081 -4.19871 6.74859 6.25981 9.31415 
-12.2051 -9.66572 2.66979 5.43504 5.19116 -1.94602 -7.87797 -1.49801 13.3382 
-2.08173 -10.0048 -0.632526 4.44578 -0.311342 25.532 8.65445 23.1937 7.32065 
-6.15804 11.2289 -6.59347 6.69799 4.41218 7.04044 -7.89452 2.4352 -8.21498 
2.61371 25.6714 2.88103 -5.70524 -2.25393 -4.398 7.80746 4.41524 8.48552 
-2.09808 -7.54018 -2.34099 1.22466 23.3004 1.40348 -8.95411 -15.3118 -16.1978 
14.0687 -5.09621 -13.2858 1.68489 -21.7467 -8.32456 2.48437 -2.03614 -24.1782 
10.7241 -23.9302 -13.5657 6.68393 -0.689606 -24.8346 7.58159 -20.6466 -9.7458 
14.8175 -2.75517 -21.33 9.05944 -20.9496 -12.8944 -6.55601 -19.9922 8.80881 
13.7338 -8.08283 15.575 10.7051 -14.664 -5.17033 16.0314 3.20335 9.9492 
5.02075 -19.4904 -3.95362 -6.94738 3.79126 10.6575 -3.0101 -13.4674 -3.80935 
-5.35071 5.59109 5.07535 7.25662 -19.3905 10.9469 2.29459 15.7177 -20.2919 
13.7885 -0.575756 -18.3815 -0.727399 10.8669 -4.26254 7.24901 2.0886 -20.4216 
5.16103 20.0757 13.9643 2.85993 2.97614 -20.4549 9.956 13.8904 -3.02635 
-6.25475 1.04636 -15.9801 15.5917 8.75303 -16.0231 6.54002 -9.76931 19.1718 
17.4721 -1.92136 -1.27971 3.93456 14.6328 7.94373 11.4214 -7.25311 -8.97088 
6.93324 -11.4171 15.704 -1.8906 -6.27346 -8.10258 5.95348 13.0759 5.79305 
-5.15488 -0.673298 2.76289 26.7416 2.46979 4.69525 9.77579 0.648434 4.1522 
-12.2503 1.21763 -0.350702 8.62551 9.01082 9.46791 6.27338 2.05647 -7.04332 
-6.74735 4.24544 2.15197 0.53885 11.0791 20.5027 -0.280927 12.3607 -0.229404 
-9.06145 -3.17821 11.2027 -10.7155 0.542938 11.6743 1.51921 -7.83527 -8.24732 
-16.7914 2.93371 2.1622 -9.96943 12.2652 10.032 9.99994 -6.93115 0.321047 
7.52055 6.49684 14.6867 3.63308 3.80327 9.96587 4.51282 -5.37182 16.1856 
4.65348 -3.97451 -7.57892 -1.79807 5.52468 4.38081 -7.9479 -4.58051 15.9633 
0.376152 5.26634 -3.31421 8.55568 -2.96347 -0.681322 -8.7293 7.18483 17.0452 
-18.8062 9.2018 13.4354 4.42737 18.6972 4.62982 -5.52527 -10.8808 12.2517 
-4.77793 -4.87018 0.511438 -5.41662 12.7924 10.7018 -15.0868 13.7037 1.10317 
7.59117 6.70278 -8.26387 -6.60249 3.06896 15.2675 -3.63218 0.977011 12.1935 
-7.1351 -3.41611 9.23336 -7.76647 -12.3764 -2.73743 7.60192 20.9278 1.40989 
7.11656 -0.719945 2.09857 12.1065 10.1539 5.96548 7.94192 14.3785 -4.89595 
-1.8563 -2.82179 -3.27132 -1.6607 4.37812 -7.4208 9.18156 12.3071 -6.68658 
10.9332 -2.36035 11.0769 7.30499 12.6413 2.90237 -17.3136 2.31943 -8.44969 
-1.15923 6.86484 -8.04625 12.19 4.94647 10.4671 15.961 3.9921 11.9368 
-2.42674 6.27921 17.0016 -17.4934 7.07621 15.2646 -0.171873 11.7312 13.9461 
-18.5617 11.3927 3.99237 3.41765 -6.04869 9.71655 -7.64662 -7.99028 13.0147 
0.125588 -12.2486 9.0708 3.13229 -4.54088 -1.72505 -12.4893 2.30935 -0.95361 
-13.3829 2.42718 9.57891 1.17332 -0.301436 12.3645 0.266287 -12.273 1.16539 
6.03597 2.88655 16.1028 -1.37719 1.68499 -2.0668 7.94856 6.92833 21.1818 
7.5767 -2.05644 3.82926 -11.4446 12.7037 10.2846 -8.62058 -4.08772 19.0905 
-2.46587 -1.60108 -0.478407 14.7669 11.5142 13.7577 10.8112 5.49952 20.7406 
-0.893038 18.7268 9.39739 -2.62596 -3.60362 12.0499 3.44391 -0.662132 3.98015 
-0.374809 13.5584 -3.79298 -17.0621 3.27039 -6.02614 10.7603 8.31971 15.0274 
-5.57427 1.73475 0.665093 3.85852 -5.63375 -3.61873 0.848769 15.3356 -2.5097 
4.47542 4.8559 10.1518 10.4334 3.74644 12.7882 -4.69043 13.4566 3.54355 
-2.39536 14.028 21.323 0.396688 17.399 -5.38513 3.60022 6.40148 16.4497 
14.3449 0.148997 -4.3394 -12.1929 -4.44853 2.35601 -4.09473 1.5478 -9.51754 
7.33423 7.63082 -2.33161 -6.15654 0.489201 12.4138 -13.7611 5.32462 4.81088 
-3.25535 4.65842 -13.2669 12.0581 8.56141 11.751 0.363924 5.80277 14.795 
-4.72168 22.2738 4.84796 -15.6102 5.65606 -2.03822 -3.8044 1.95551 -8.53868 
6.81441 14.0433 -5.05891 7.91134 -2.39366 3.04899 -8.94799 19.2533 -3.89473 
-2.03705 -4.83725 13.4168 5.5948 4.62101 -3.56341 -5.47706 15.0205 -2.97419 
4.49279 7.58949 -4.78358 1.92464 3.80237 -9.72355 9.96006 10.2549 11.2026 
-4.91636 15.2466 7.61349 -17.0483 5.58335 0.809434 13.2846 8.77762 -5.79187 
-4.56747 16.0313 7.7478 7.37834 16.6594 -2.55815 -7.83636 9.16018 11.0348 
9.88923 14.4527 12.4259 -11.9655 13.5998 11.5317 -5.64222 -8.5926 2.87649 
-10.2601 16.8653 -4.38975 1.54528 8.45204 14.7744 5.68481 -4.90535 -3.07611 
-4.47292 -5.15524 -6.46169 6.44202 -6.37805 10.6265 -9.27291 -5.56329 12.0923 
-4.22758 8.35403 22.0812 14.1205 4.01523 8.80045 8.54459 14.2316 -0.187133 
-6.96098 -1.46878 13.8919 2.26248 20.9718 18.1434 -5.73438 19.4709 3.05632 
17.1255 7.54213 6.5403 -9.99956 11.9059 9.27497 9.86892 15.7999 10.7807 
-2.12365 14.0656 -8.24701 -12.4437 5.01574 6.95528 9.11682 -0.931573 11.2903 
-1.95084 4.98726 -14.5292 -4.08349 12.5864 14.0255 -14.8039 2.02322 3.69704 
0.467634 12.5797 14.0809 7.91182 6.81526 -10.5136 5.2507 -5.54278 -1.02084 
-7.87761 -0.504659 2.82566 9.3139 -1.25136 -8.09918 8.48954 -2.38064 7.8571 
-2.27317 8.45767 5.2951 2.21346 -10.4157 14.5819 -18.5077 2.94262 11.0603 
2.68504 9.32724 -4.42624 -6.37361 -11.4235 2.99344 7.06033 7.67165 6.82603 
1.91824 -12.0639 -2.45105 -7.873 7.14578 8.76614 -2.67657 -11.3517 -0.854313 
-1.86329 8.05233 -9.55201 -3.63612 9.26791 -6.42369 -7.97664 12.798 6.93912 
10.143 0.141959 -5.02202 -0.423563 -7.79559 12.5176 -7.86095 12.0535 4.24658 
-3.26951 11.501 22.2506 5.36248 13.7184 0.987299 0.809537 -9.29979 -4.60035 
-17.5929 -7.93328 5.08163 -12.6063 8.53708 -3.97291 1.45241 -11.0853 11.9263 
7.65599 9.55887 4.98563 -8.9435 -7.72609 6.4964 2.19435 14.4707 10.3414 
4.71108 -0.241165 20.7015 -4.36113 -3.84857 3.27758 9.03265 -0.413315 5.59183 
9.26728 -4.62782 20.0294 -5.14189 8.04699 -2.54077 8.9755 -7.44639 3.66645 
-2.89091 -7.05952 15.8608 -12.5529 -4.52594 1.78363 7.55718 8.70217 -2.99438 
-2.96042 -6.5434 15.4375 -1.3501 9.83174 17.1929 -7.36442 -7.90092 2.56325 
-5.88114 10.4016 8.19708 -6.27281 -0.752081 -7.1478 -6.67306 1.9776 16.1449 
-19.1494 8.40888 4.45306 9.76026 12.1534 3.50012 -4.18589 11.6486 -4.11475 
7.07246 -7.10875 0.840578 -8.81943 2.44769 -5.73416 -3.38783 16.3111 11.1632 
-11.1305 6.38451 -12.0696 14.3474 -3.73371 -1.28499 -0.971875 12.1723 15.5955 
-4.2241 -1.98927 -6.48106 17.4687 -8.51563 4.47091 6.23073 -1.96171 -5.98994 
18.2781 1.94574 9.77095 -8.97042 7.04807 11.4043 8.06075 2.63239 0.339869 
-3.85652 0.970207 10.6255 12.2023 7.97482 -2.10003 -6.52127 7.62944 1.99914 
4.96075 4.34601 16.4273 14.2544 -10.1582 -3.33711 3.37461 2.42419 10.6347 
15.6587 11.5806 18.3917 19.7894 -5.89845 2.99846 17.7516 13.8655 15.3826 
3.31844 -0.0958678 10.7422 8.64068 -5.76185 -2.84744 2.24066 0.632099 12.2108 
7.84345 1.51594 0.688091 1.25734 -3.22047 16.7568 10.2773 3.5035 -3.81868 
26.3077 0.66443 8.48144 -0.364891 20.4863 11.9603 8.44819 5.81444 -5.27335 
11.6039 20.7568 11.2947 10.348 -9.27653 7.97978 7.90129 -10.093 3.60266 
2.7194 0.139679 13.9748 -0.53406 1.22024 0.457772 17.0955 -1.00263 0.814205 
14.5252 -4.78258 4.43859 15.1688 0.631541 4.15085 8.40059 -10.4467 5.88953 
7.99981 -10.084 0.50798 9.88753 17.4894 5.01815 13.3587 22.9407 5.05414 
2.06725 21.5035 4.70301 10.8238 14.4248 17.8418 0.350264 9.46533 8.67461 
8.08557 6.38862 -5.47184 13.2363 3.62133 -12.8468 14.3873 -3.9022 10.2072 
15.8258 -3.1123 11.269 -2.27953 -3.54568 14.2144 7.30051 8.31226 -5.32298 
21.9254 4.85329 11.8616 24.1605 5.74668 7.47335 8.4231 9.16918 15.932 
-1.2578 -0.979591 -0.976909 -1.06688 -8.56036 18.263 -7.48523 4.31055 7.14733 
13.964 -5.71992 9.49101 15.3257 -9.27184 9.00107 16.1821 -2.58253 2.32672 
-4.95551 1.77717 5.07515 0.714875 1.35745 13.7308 1.51615 0.0445616 -7.73898 
7.87335 -8.13765 9.76606 18.9688 -4.1518 8.65357 15.6958 1.75133 17.3921 
10.6895 3.01118 -3.5793 17.5728 2.62367 21.9916 17.4717 6.10001 5.50761 
2.39256 12.9777 18.8989 9.67231 -0.327621 13.8486 4.30315 -2.11454 -2.48723 
17.0679 11.351 -2.32317 13.6995 3.81425 21.2906 14.9098 16.273 14.8264 
-0.353605 8.75568 16.1242 -8.05853 4.1633 4.85098 13.7387 9.60007 -0.909177 
7.75946 -6.04862 15.0886 18.422 12.2998 20.8355 10.3181 5.61377 -0.0849719 
20.9945 3.56105 -0.529207 7.05778 20.2787 2.52948 15.1998 5.46002 17.0704 
-1.4699 7.89275 1.54585 10.3714 16.0358 14.2001 23.3848 9.12447 5.51107 
11.0773 15.158 -2.40565 16.1893 7.65337 20.7088 20.572 -0.665691 -1.78968 
[...]
CELL_DATA 2484
SCALARS scalars double
LOOKUP_TABLE default
-1.9587957729 -5.611828037 -6.3994478885 -1.3973817306 1.9915535538 -9.1689592196 1.6113915799 3.3207937695 -3.5694455857 
0.35569674988 0.83778602119 1.3337375374 3.2562281148 -9.3604321031 -1.5190748571 -1.8647296487 0.91290086079 5.6714636759 
5.8870338812 -6.8110126482 2.148600009 -2.187451579 -1.4353877387 -7.7778642815 -8.022551385 8.7371480088 7.2250561142 
-8.9099148067 7.9881301093 9.1183469515 7.8062060154 -7.816782206 -7.9914125171 9.4748992289 -9.9789932123 9.7684978004 
-5.2025981354 -6.9167553537 -8.3675611642 8.2185305137 -4.8989265115 5.0558789334 -1.0361058979 -1.4008491696 4.5187835806 
-9.1966061981 7.0687188838 -3.7637484756 -1.9052694171 7.2858174174 5.2945206699 -3.2771140037 8.7912206016 -2.5180174753 
-0.40565161483 -4.9580077299 -6.2847337062 4.4718381024 3.3236099029 0.74482362767 4.7574514388 -3.0115354445 -1.4843844802 
6.6006390437 -6.0909500516 2.3935245546 -2.2565560008 -9.0998842618 1.6564699536 5.5182009603 5.5158525402 -9.1357298452 
8.3703426184 4.4664935695 7.4104957801 -4.4418959437 -5.3791772875 -4.5680671978 9.5857886918 -5.3184839298 -3.2800192265 
8.0801586192 -7.2320866562 3.1786219369 -5.4063140965 5.9720433958 2.9129358007 -8.9695722091 -4.3280439385 -9.5620740517 
9.659606449 -6.4678166667 -3.827410094 4.1937422913 7.0521190523 8.8956073158 -5.073257948 -6.0258279203 6.6750292993 
-8.5973378234 -8.6588675794 -7.2815172092 8.8313456395 6.5199444555 8.0853111086 -8.7965318019 5.2835570347 -7.1843785315 
-9.8361183828 -9.9201045394 -9.6015659722 9.9064553157 -4.3557406042 9.8239391009 1.9373624096 -1.8756423257 -6.742666468 
9.4956043433 -4.4543950032 3.1996445077 0.49032064511 9.5215112749 7.1085027244 -4.477883455 5.3685604565 4.7257115164 
6.176878716 -5.8074040609 -7.1025794701 -3.3371283194 4.4777177646 -6.2095021952 3.9306005817 3.2282190518 -2.6785138747 
5.4319521819 5.3500320386 -4.0815414929 0.60065988708 -7.8782887092 3.6395126155 5.3529429845 5.8704558864 4.1311724916 
5.3866081141 -3.0771530139 0.33749614292 -1.4747995757 -8.8769938045 0.98041254748 -2.9232892253 -2.7332313061 -0.96135331499 
-8.3441253259 9.1157094618 4.5765466021 -1.6617343495 7.6956009229 9.6743819956 7.262441046 8.7046547461 -9.489853602 
-7.2674785603 -9.7586983636 -9.0794469825 -1.3740420441 -4.9962327423 3.2714942681 -5.0165477303 -6.3166369518 0.99101145374 
-5.8689309881 1.9935401293 8.28326317 3.0075098397 5.6114350734 1.125480146 -9.9552810309 0.61357430531 3.0669540874 
-0.2856493167 -9.8877694159 -5.7028817989 8.3369393831 -1.9410078845 -0.24592629856 9.85451209 6.6343204208 -0.84866479564 
-8.0627335899 4.0410684537 -5.3691176511 -1.1803095564 9.9782380536 5.3940415315 -2.0240750983 -8.6075968774 2.6750739461 
4.2512664028 -9.0926217393 -8.896720562 8.93162184 -5.362909795 8.4704030018 3.9650517338 -4.1178110936 -0.98877057027 
-5.9182561412 -8.4801394829 1.9751759409 0.78620148935 6.7236648403 9.4542254817 -4.5299604743 -3.8976293193 4.1901631612 
-2.1622262063 4.0009323363 6.7586648596 1.5441753754 -4.7394738458 -8.7137091413 4.3061320764 -6.6303318184 2.0922517622 
-0.10789187618 1.4373464621 -9.8058479707 -6.2644491521 9.8030489128 9.5015345944 6.7838339042 8.0081981448 -9.5892924155 
8.8908480693 8.0148884019 7.1538658651 -8.9433762028 8.6468956471 9.2166692622 -3.0608312726 -8.6713755661 -9.6859643203 
-8.0222004134 -7.1845247306 9.7818987588 3.4316931066 2.2767195724 -6.1815010332 6.9447832408 -0.97551464683 -0.36636489882 
2.6703129461 6.3712825434 -5.1622227319 -3.0706384733 4.2868949941 5.7465440045 -4.55237087 9.4002155009 -7.5631749592 
4.6519138416 -4.4047877891 8.3154382075 6.774823149 -4.4621956827 -0.0067688830693 7.6960186164 5.290938373 -4.6285686308 
-5.8491705039 9.8365856646 -6.3618184568 -3.346741324 -6.7251645649 9.4531769772 -3.2111005522 7.4133993767 2.2459393464 
4.6639950428 -6.0469114668 1.8604742151 -0.39732399237 -7.1393493112 -6.772733855 4.6110726432 3.0334922837 -9.2826444261 
-4.712128465 1.0148256732 -6.170158512 -9.1792200692 3.9265983337 7.1916726188 6.8875647348 -8.6180852864 -3.1471931321 
4.8772879022 4.0824914007 8.3377286524 1.19903448 -5.5234915619 -3.9081901898 -1.5541306739 -2.3371130942 -2.6891187407 
7.9035571206 -5.7935712128 -1.6324597867 3.1676899647 -0.15547888016 6.1135607367 5.999263812 -3.9633910723 -3.2453665584 
9.7465414424 4.3173877262 -4.1410893224 -5.7427321707 -3.6583027878 9.7875964651 -4.3790605801 7.7701328627 -0.8943852731 
-7.3913893972 5.5569648698 -5.3385206566 0.57168566371 -1.4438606349 6.2572542318 8.0075920205 2.1303515127 -1.7144162192 
9.5423056759 -8.6348596949 -7.059556303 8.9303339171 4.8386023517 4.0459929753 -1.4572044877 0.39922856677 -1.8611367643 
4.8448022689 4.949172114 -2.657887965 3.1109079428 -6.8633028158 -6.4812038072 5.4978509389 -6.8478000266 -5.4865747188 
-3.4330173677 -3.1931123555 -8.9140936906 -3.539764354 -6.021705676 -6.6822694815 3.5953094335 1.7496230964 -3.9072491785 
-9.7422379041 -2.1316796676 9.949844961 6.6749846336 7.9946276063 -7.6436900882 8.9522730291 -9.5553303304 -4.3874420921 
8.080844795 9.522088144 9.8673459478 9.7697552544 -9.5043462774 -3.2665434713 -8.3903409808 -7.9677481362 8.2047102559 
9.3098836769 8.3530974485 -9.7495743541 -8.4816693776 5.5448192414 5.0045931137 0.4953198336 -4.5129954527 -1.8230673445 
0.44219593569 -1.8830698779 2.6236395124 9.5535171686 -1.3218172412 -6.7362790471 -8.4953798885 9.1462191898 -3.7190301855 
0.53360983728 -5.2343296026 -8.307860992 8.687546982 0.070101875997 -3.4751101587 -2.9397856388 -3.0612333427 3.5129094037 
2.0898019314 4.5145134288 6.8906898961 3.2065763246 -1.5998951146 -7.7366430792 9.7255164991 2.8510699699 -8.0361580243 
4.5513788705 -5.9172899125 -3.5602879371 5.1187573735 8.0892679759 -3.5525810166 6.4579332289 6.6923067816 -2.6934430679 
3.5454028355 -3.7637646676 8.0625735109 4.9045986587 -0.21437837497 -7.69699634 3.2316899779 3.1733090542 1.2079231558 
-9.7339733816 -2.652006996 -4.2124372053 -4.5244071032 -2.3136455848 6.1797573432 6.5935206352 -9.3509207281 -7.279312572 
9.962523442 -9.0252888709 -8.054158919 6.4499507688 8.2979378394 9.2338660717 -3.3860135772 3.8107709975 -3.8497118479 
-9.801602862 -7.6565052034 4.2026876224 -6.7789355995 2.6373715405 -9.4862785821 8.4602094985 4.668114264 5.0472587851 
8.3950302524 7.0842955308 -7.1350301577 -8.8083654706 -5.1162314067 6.0776740649 8.9159197271 -5.9932114794 -2.3814647632 
-1.3310240819 4.3912315344 -7.8334247983 -2.1083297227 0.31123655413 1.2010648652 -4.6910690872 -0.072556106146 6.0833695884 
-8.69888255 -0.2217201557 9.4071262342 -5.3031633354 0.038829644621 1.6400120185 5.1175702269 0.80691230506 -7.6828563183 
1.1878966253 -0.67430530456 6.8568485582 -9.8059524633 9.7834227334 -9.6332762749 8.6970782183 5.2827486304 1.7908020276 
-8.1742902674 6.6704474515 -7.8998845433 4.8907088494 -7.3953912975 -4.5917664867 8.9409852744 -4.7494025428 2.6902007548 
-9.3884879941 6.2683848264 7.5618293591 -6.1226633552 -4.7650329325 8.9787733959 9.119416219 -9.9374454257 9.5500856885 
9.7342338391 7.5865955758 6.2906692441 -8.9087832884 9.8157393324 -9.9307669566 9.8835757972 -9.2974082682 -9.6782408927 
9.2321423308 6.3534424102 -2.0037598246 -7.972855735 -6.6354689041 5.0460207973 9.9884448762 -5.1852148019 6.1579369017 
3.5439860498 0.99050623276 -6.668961978 -9.3276712247 3.2964717197 -4.3468628815 7.3387599927 1.3136754382 0.4238136737 
-5.7826616923 4.7041352964 -2.1330418868 -5.6648046766 9.135033659 0.10483527638 3.7314675228 -6.3587355504 6.5587866454 
5.8002486325 -5.9486759247 0.57031148689 8.7523374487 -3.667747016 5.8760958491 -9.5714687707 -8.9322592743 -2.5449604126 
-4.0387034119 9.5410658241 -0.42615879913 -0.3446802624 -8.9995792994 -0.45124439568 3.7616707724 -0.44510440956 -6.8471301946 
5.482374806 -2.9590074542 -6.4568976507 -1.1230644566 8.0773115007 -6.2123586118 -6.4843545339 -7.5698173077 9.2496325368 
-9.353437363 2.4824015699 0.57741212332 -2.2306454213 6.5616341665 -0.87981814524 -0.54838904497 -3.3580205347 -0.23278431541 
6.7231374862 -5.3104760358 6.9804457824 -0.12233457049 -5.0809561382 5.9402953588 6.3823045459 -5.6866767225 -0.80265547765 
-0.42275538008 9.8795102797 5.5870484936 -6.5221393127 -2.1788942406 5.53861066 0.79401631174 -9.2178361291 7.3971841534 
0.99707163705 -3.7222996023 3.3740154563 0.85966941346 3.8719394041 -9.1964486213 8.6850573927 5.1441493452 -9.1693926384 
-0.16721756985 -3.7678821268 8.3351001261 -6.2665890318 5.0290941186 3.471841794 5.6302833078 -3.4908373328 -4.8077116059 
-0.92208882653 9.6514005521 1.463540002 2.5249307487 -8.5385093041 5.1776722558 0.36289763632 -3.1451774771 -2.9893360316 
4.3193260577 -0.40412187419 3.0824851008 -4.0329808752 -2.7533564323 -5.3981799407 1.0754340557 -1.7379117063 -6.3335062755 
-5.1641062621 -0.85165030823 7.4891729018 7.4410683174 -6.5488786862 -9.8173336942 -9.5381190372 -9.9569122818 9.9959599421 
-8.8828468676 -3.2089197286 3.2461535288 3.7375434063 -8.5247899643 -8.854282585 2.8627026853 8.5230600018 8.8857757012 
9.888026181 9.4875411595 -9.6632532937 -7.4996660723 -7.1815771205 7.3248658901 -7.0661122349 -0.94811287512 -9.2096765133 
1.1668799814 1.7780061627 9.3792086639 8.54965154 -8.7810103351 -9.559851368 9.5454509461 -5.1681728255 1.0855394225 
5.1334276406 6.2858092851 4.4650137585 -0.49229832703 -2.4280842622 8.1929881271 9.8820708881 6.432369591 -9.0021351419 
2.3964790661 0.17378259666 -6.2875489754 -5.0930019575 -5.1000346978 -1.8460381561 -3.5619470206 1.8031463653 3.0491839618 
-7.3592530961 5.861767665 8.9449335257 2.5780374652 -3.0633230742 3.5878836251 -0.82394721036 -5.9805173933 5.9631332461 
-1.0491072221 -2.0195634445 9.7343138217 8.8807534228 -5.1955312515 -8.9836895173 -7.1087892333 7.8819394407 4.9211184227 
-6.0731894465 -3.9040904939 -8.9621813356 1.6867822598 6.0587862854 3.4917036784 1.7289635967 2.2988966817 2.0761292927 
4.578960562 3.5178534743 8.740811591 -7.0329972845 4.8425198037 6.2752369184 8.6489586785 -6.6389933668 -1.5525466556 
-7.5516522015 -7.0822799659 3.6559001575 -1.9003332876 -8.3902035607 -1.0414618328 0.8423320016 -6.1684932469 8.1911357067 
3.5055572039 -8.6529068223 2.4288356302 7.1223747322 -8.6878923609 -1.1200933728 2.2742428635 -8.1205865803 -4.9365063736 
2.3959019381 2.8850347983 5.4548696857 4.3380068683 4.2187059141 -7.7086066281 -1.5680797374 0.35100396737 1.0717788089 
-8.1080001284 -9.4373313953 -4.2461637174 6.1517904034 6.5083780797 -6.6986030533 -5.4798368261 7.7871852481 -4.6234363669 
-0.67752090631 -1.0785640714 0.5965846782 9.69680362 2.6421727404 8.2647979731 -8.3336989559 8.113115261 9.2043413528 
4.8091810374 -7.6454459381 -9.9880704258 -1.0299622912 -0.66169407042 3.5985671434 -7.9332671177 9.2999686997 6.1466026253 
-8.540593241 -9.9355231256 -9.7981136331 -9.7908806591 9.9060849537 3.5344693833 6.207137517 -9.0411615095 -5.1046809026 
-9.8524161927 -9.0255687977 9.7534335427 9.2630142806 -1.1044549062 -8.7097204568 8.9262315169 7.1814206632 6.0474070881 
-1.8070649149 -1.3557896347 -4.9761744896 8.7468960178 2.815926298 9.6647490665 -8.185439588 -2.5827570297 -9.1322932131 
-6.2412764721 7.3650087336 9.381835627 -6.5176215868 -1.7609506893 5.7808247123 -1.4602744147 -5.5829418065 -9.214451467 
6.0729203619 -5.9551940429 -8.3693164781 -1.6514945573 3.9950403529 8.0551674045 -9.3103378969 0.51692714274 8.0332629481 
-3.7324072437 -4.4497443423 2.4457790354 -2.5260435849 -0.46986790428 -1.5437153051 -0.062148669969 -4.0740613101 -2.2741865728 
-7.9440971162 -0.52064859726 -0.8125985993 -1.075322214 1.381475662 -7.3469806719 -2.7129553455 0.60947517217 4.2664716508 
1.5816820163 -0.37003978582 -1.9167667664 -1.9422645131 -1.2559495741 -7.9520762826 6.5479874667 1.3742337923 6.8877086139 
-9.6355383592 -4.6434534943 3.470852954 4.0112876578 -3.5996759359 4.7662387116 -1.658305464 2.2645452572 1.5779609978 
-9.556668871 3.6838688927 3.237392364 5.2161848051 -9.7743628109 -8.72274933 8.8669439804 8.9677825334 8.3959298803 
7.2535499676 7.597783056 -7.3043911444 -8.3017198835 -1.9345184334 5.2536395185 5.7032015416 1.6651303812 3.3486114499 
-4.4179434265 -2.6850810385 5.2494404046 9.1277224645 -4.6818473563 -6.1962568981 6.7063040543 -1.2657268283 -8.3205802472 
-0.33792056801 7.6400602208 0.13105959932 -7.931654049 8.4002178284 4.7332457347 -6.5600476996 -8.6446683811 2.0897336768 
-7.4540737797 -1.7043345672 -5.4141325255 -8.1845720724 7.0138770001 -7.8299446183 8.1820555018 5.1175791622 -3.2006271407 
2.0686499237 7.6079368554 7.5558212964 -9.0768181594 -9.055024854 8.4418417492 2.5411722395 0.31450672498 -2.0835658067 
-9.673417847 7.6683751892 -6.9973722282 6.4479330033 -6.9135831822 -2.62958766 -0.46480677663 3.2869376026 -3.0187143193 
1.5709882782 -5.4594484189 0.12561242076 5.2735618003 -3.694062213 3.0093137552 -0.4986107496 2.5494575724 1.4680416203 
1.6459138458 3.6876287181 4.1259015507 -3.8566796572 0.47013024569 -4.2203914787 -4.1905734613 6.1808900966 5.1933990556 
3.575382913 -1.5187833517 -5.7084214831 4.1793627644 -4.3064438142 -3.1608693694 3.1530220527 9.226122649 -2.3952794986 
7.5626510146 -8.5645506246 -2.8100823851 -7.0095166568 -0.80317844324 7.7283282856 3.8232991349 -7.0827330369 -0.61294397237 
0.030934077328 -5.3984193859 5.5960806871 -8.0980078767 6.6321943705 -3.4595317513 -7.0128905226 2.0774428114 4.4297679599 
-1.6576012531 -8.452732502 0.78011269681 -6.0669803077 -1.1536195591 -2.1244586093 3.0824884872 -2.2027706593 5.4380987996 
5.9765293493 2.7332295605 0.30293345778 2.3729359741 -3.6665312392 -1.1618754125 -1.3435714492 5.6094071123 -2.037991171 
-0.81530456661 -3.3539097677 2.7457869067 -9.0886745302 2.4357439042 1.5687779633 2.2777923722 -1.6011882351 2.6603845953 
8.7514347151 2.6396953511 -8.3755098987 1.1172209034 0.78613290714 -2.5735800466 -5.3275016244 0.9638322155 -5.9297072673 
-6.0148621623 8.9401063436 -2.0853944465 -1.5372181817 -2.8704345025 5.2877190853 -0.37013319935 -0.72555281035 -3.8344639128 
5.2260220114 7.2585151051 9.2824636968 -4.4653914414 -7.3824038422 5.1096292737 8.4328448115 0.97380780435 -7.3349040139 
-8.6209871134 -6.8013148846 -6.8144027846 6.6775979127 1.5115894862 6.5619314134 -8.9332123238 -5.5794796167 4.6696553613 
-7.0820922205 -0.19936294942 -5.9590213897 7.4616808987 -5.7718106703 -2.887463777 7.0995837167 4.7955165602 7.5073070429 
-1.4214242337 -7.7250483249 -3.2419231999 8.6970329524 0.88725246456 2.258553686 2.2800087173 -2.362272859 0.25358130368 
0.49017352843 -2.8728250796 2.7944770143 6.3488475607 -1.4163845876 -0.072457140915 -7.3733744081 -2.0477463601 1.8801050401 
-4.398312834 1.310524344 -1.6849745772 2.7755066071 -0.97047891191 0.43644672016 -7.7496594626 -0.031160003397 -1.0071588535 
1.3789992768 7.3921216896 -0.13065721796 -0.23774752817 -0.51832455902 -4.7185586502 4.6068224632 -5.317342813 -4.2420377151 
8.7737953858 -3.1910385233 -2.7115548194 0.88855024913 -4.7175716634 1.0076493737 -6.5483871059 8.9759902145 -4.0698065324 
1.3113110194 2.7519638624 8.4744297385 2.6072166733 -9.8357916822 -2.074551565 1.7589122769 6.3290135428 -1.4801693921 
5.5349825083 0.026142972073 5.6342135507 -4.7888142975 -3.1386940935 5.1636136666 -5.1200061277 0.93754869934 4.0975634516 
6.2470359373 5.4499876776 -7.0120113509 -4.541028993 0.98001634806 -6.8186731463 7.7293659762 -4.8515467513 2.1303346341 
-3.7911611781 9.8747971478 5.149434703 -5.7909430151 4.2370663666 5.2826471247 0.97714652971 8.9724483634 1.8034854713 
-9.0787234319 1.8011070739 5.190472903 -5.5532853708 -9.6640758035 4.2823261841 7.479433467 -2.8954631634 -7.6832375514 
1.0713873449 -9.7682588866 9.0258266987 9.7108947703 -5.0561565598 3.0103304429 3.3729437678 4.0488329253 1.265015927 
7.6967401582 -4.0338567657 7.8892619728 -8.0409279368 -1.2627788724 3.2124347786 -3.4132176769 -4.3422018841 -9.5757666975 
-3.9581955465 8.8626589906 5.1938941602 -9.1786636032 6.8115393191 6.0533263638 0.33315570728 5.6058210667 7.1712561131 
3.0152915935 -0.58513882859 -3.2787662644 -7.489830638 -3.7253240772 4.2693358944 7.1527063287 -3.9364148202 -3.4283413936 
1.5403617932 1.5357705896 -3.7778732514 -3.935888262 4.4435118823 -4.2059821796 -0.092117892044 1.5088252247 1.5720973883 
2.9210435071 3.1279437317 -9.2941282725 -9.9378115559 -4.5361975096 8.169983781 7.4682141172 -8.1763572666 -7.6819884551 
4.3437889696 8.4232725468 -8.0552926503 3.1508477704 2.6146065684 6.2606950867 -8.2866760844 6.4273827037 -3.6143403715 
-8.8715244054 0.66074104383 -3.5971192628 -0.10072670216 0.3208944543 -2.7091700746 1.9947302717 -0.089647566555 -0.67590901103 
3.84044091 5.2153182111 0.96720940569 -7.1920126721 9.3056648032 8.1432922385 9.3862762936 -9.9707898657 -1.0848411792 
-7.0908488404 -5.1435477455 7.0582783792 -1.6635718661 4.9253629813 -1.072029782 -4.298464704 -5.4499730747 3.7358055986 
-0.25842035899 -6.7863152291 -0.46878677136 -4.8266797288 4.9058129446 8.470742033 -1.7809023054 -4.4540966004 2.644424025 
-0.29674460019 3.1660395657 7.111184718 4.9506539105 2.2456019738 -5.9872821885 -2.7108863488 -0.33943179531 -7.5841066244 
2.0507644726 5.6786577429 -8.5524094845 8.9034877355 -2.0946782755 -3.1750046934 -2.8907649661 6.6265838768 1.768986133 
7.8371193322 2.5466545149 8.3170155989 -3.4855818857 -0.99756495647 9.2748484708 1.050190714 -7.4241164531 -6.2355548287 
-4.5583323765 8.6679816799 -4.4394949971 -2.2847020028 -1.4608710939 7.7229967976 6.3488179976 4.0817864691 -7.2110361547 
6.4291597334 5.1485805358 -4.143799549 -4.4832605209 3.8634818527 -5.1896412781 -3.9790005572 -1.2179555496 0.85177947344 
9.4104418416 -4.1703126653 -2.8240386166 -6.951695469 9.6567191634 -5.7068733251 -3.3474294866 3.0303935658 -7.2600919111 
-6.4799386657 5.8923262029 7.7825750637 5.9577602541 2.9249994387 -3.7658226637 -6.9864335523 1.2483603691 2.9177335395 
6.1420512272 -0.99523476205 5.7833780031 -1.5124001292 -5.4914268875 4.4135850383 -0.97053029756 2.4924907405 -3.1251939176 
-6.4796388468 -4.8634171042 -5.2388968447 5.7688925587 8.8238256705 -2.8349554336 -7.4304423945 1.0762104725 -2.7434711709 
-5.8443847648 6.0846735181 -9.6889062906 -1.2471148014 5.6199685626 1.2633513598 5.2206680611 7.0903588397 3.9787880584 
-6.9979957045 -7.6679045412 -9.9099302694 -6.7495377621 7.5184973768 -9.6631293113 4.3918705651 1.7533190733 -3.2359416381 
4.5324662369 -7.1637492262 9.5200138319 6.3892360505 8.5347765015 2.5174141417 2.6114830778 -2.2511061948 3.3815586807 
-1.72604014 3.643842248 -1.5626987394 -1.6289596854 -1.5596931389 1.6942710527 1.3222660489 -2.0671841791 -1.1906979198 
-1.112380972 -1.7142245788 -9.4086258822 2.7514111401 0.28230318746 -2.7165052745 5.0375528413 7.768059583 6.2995885318 
0.087349399574 2.2295329778 -6.4533127476 -2.8371081196 5.5593907536 -5.137770946 0.062955362543 -3.5043355662 -1.5024506739 
-3.3746665411 2.8510872604 2.4038577141 1.0613397155 -4.3669153289 -4.3317870174 5.5049800051 2.3723498645 7.0348382956 
-8.5983048728 0.14135307125 -5.4550242758 3.0905908276 6.9407117239 4.0615316178 -8.3001953614 -3.7018587043 0.026660226428 
-5.246343372 7.7383504318 -5.2608577315 1.3132486909 2.9784153035 5.4799513487 3.2016834988 4.1615198557 3.4840123726 
-5.3748761221 -4.5974036723 6.4993107707 -4.7552498047 -2.0085602465 6.0013013608 3.2842999936 -3.6478607102 -0.95144101314 
3.6813172054 3.0688195315 3.7562587578 5.6633871536 -6.938058805 4.4993326605 -1.5462520074 0.78088872608 3.5161804873 
1.8480307008 -9.2835976934 3.7460331139 -4.1750168811 -8.8636182373 -6.0688481609 6.7510852179 9.5992613301 6.9293172348 
6.7440397402 -8.4310226588 8.2304393824 -2.630319384 -2.7178952354 8.146879987 2.416524535 -1.2584699942 -9.2022354339 
0.17189370849 2.1347082829 1.1418524747 4.5912577425 -5.2970961325 2.1347098246 -2.1359538548 -9.1658946704 5.5086063398 
-6.2217432485 5.8785098421 7.5213590656 -7.5799262788 -2.0359066394 -7.611759673 9.0525075321 4.0221319056 -3.8561596621 
7.5797795747 2.115788288 7.7109699134 -8.4281773307 2.2392319188 2.4417693748 -7.3224861225 -4.3530172593 -4.7908473861 