# vtk DataFile Version 5.1
vtk output
ASCII
DATASET POLYDATA
POINTS 1244 float
-10.8039 -1.6433 1.14719 0.363841 7.59459 -7.68786 -1.43743 -9.44283 -2.40766 
9.20611 11.5236 4.80265 -5.83133 -0.862617 -3.06191 2.38142 2.69628 -0.507853 
-0.417176 1.06994 4.29677 -1.35664 -3.72122 0.483105 -2.86792 -9.47018 20.5747 
-14.1867 -18.6121 3.74396 -15.041 3.80286 -1.23088 -11.7041 -15.8229 4.83751 
7.97813 15.1885 5.85626 -12.936 -15.2215 6.59458 -14.9695 3.21443 9.01758 
-14.7089 -19.5853 9.94708 -11.6078 -10.0962 -7.37969 -2.97656 16.1763 -10.7276 
-12.8503 -14.3677 -11.0372 -7.97937 1.14907 -7.56198 10.9901 14.7407 11.1748 
-19.6684 3.94075 -20.05 11.1945 -4.9078 10.9694 -8.41042 7.28054 -8.42312 
-10.7648 27.3674 -10.8203 -16.7875 3.89942 -14.6143 -17.1976 18.304 -1.71615 
-5.13497 8.15301 12.4493 -22.1569 -3.50789 9.25584 -9.38336 -13.3212 -4.64796 
-26.0975 4.19587 4.90893 -9.92935 -14.2986 12.5693 -22.9257 1.16843 6.65853 
-6.65363 8.03595 -4.51294 -18.0186 16.6939 16.1343 -12.7458 6.0258 20.363 
-20.5792 9.64595 -4.22662 -6.57216 -2.44671 7.92251 -20.4493 8.5028 -8.93223 
-22.3449 6.48487 21.6787 -20.6778 -0.473024 -9.80122 2.53585 0.7479 5.36877 
-17.3562 -5.2234 8.85257 -17.0891 22.2194 7.22072 17.7921 -18.5854 0.67588 
-0.513954 -19.2389 -0.598245 -4.38344 -11.7845 14.6167 -12.1113 -9.86581 -1.99055 
3.80741 -26.2449 5.35136 -13.9216 -10.7296 12.7373 -7.99454 -18.3284 -2.03847 
9.45149 -9.80326 -4.57531 16.0797 -17.8053 14.1772 13.5703 4.77418 -21.9037 
-3.93215 12.2639 -15.852 9.49686 -0.73383 -5.29609 -9.52473 8.35164 -20.6311 
20.5064 6.1143 -23.7017 -9.82179 0.161493 -20.8193 4.55039 -0.563261 2.68233 
5.76202 -5.99601 -18.7364 12.0185 20.6974 -15.1581 2.55711 8.44953 20.8959 
-3.19552 -5.08043 12.5286 -7.04894 -2.29923 -4.07329 6.55313 6.1869 9.32356 
-12.8727 -10.2315 2.66507 5.49325 5.24289 -2.32727 -7.69618 -1.47109 13.58 
-2.11477 -10.3512 -0.739363 4.52959 -0.116366 25.2476 8.68207 23.291 7.2886 
-6.27152 11.2813 -6.7079 6.70848 4.35365 7.0515 -7.995 2.42966 -8.27307 
2.70718 25.6943 2.7917 -5.63802 -2.1453 -4.73478 8.07403 4.37716 8.78547 
-1.9719 -7.36756 -2.3334 1.08598 23.4118 1.30636 -8.70204 -15.0257 -15.8945 
14.2212 -5.20962 -13.4613 1.68024 -21.9277 -8.37099 2.4742 -2.00966 -24.2976 
10.8379 -23.914 -13.6834 6.68754 -0.921326 -24.7576 7.61495 -20.6377 -9.68671 
15.2296 -2.69044 -22.1802 8.95149 -20.3575 -12.7938 -6.69176 -19.8657 8.60667 
13.9661 -8.30333 15.523 10.6919 -14.1325 -4.99338 16.2005 3.25801 9.72995 
5.02601 -19.5455 -4.11225 -7.06794 3.84377 10.6856 -3.22877 -13.6094 -4.0268 
-4.99421 5.30946 5.03624 7.05214 -19.5798 11.0674 2.17895 15.7313 -20.3734 
14.0615 -0.5906 -18.4783 -0.539042 10.4823 -4.23697 7.35584 2.22046 -20.5562 
5.21719 20.3003 13.9214 2.90736 3.15209 -20.7044 9.67659 13.3995 -3.15395 
-6.57899 1.11707 -16.2015 15.9537 8.79773 -16.2077 6.66078 -9.76463 19.2079 
17.4079 -1.94423 -0.929173 3.80685 14.8819 7.96194 11.451 -7.32928 -8.65063 
7.15866 -11.3709 15.4489 -2.01217 -6.39775 -8.19165 6.06774 13.8774 5.87736 
-4.68593 -0.587529 2.91508 26.43 2.71389 4.70398 9.75525 0.631569 4.14115 
-12.0488 1.14425 -0.0767826 8.75277 9.11105 9.45914 6.32166 2.07437 -7.24599 
-7.04915 3.94538 2.59375 0.516105 11.1576 20.7218 -0.288776 12.4446 -0.408552 
-9.0597 -3.23929 11.1728 -10.7571 0.556653 11.6515 1.55702 -7.89343 -8.32444 
-16.8414 3.02071 2.2813 -9.98108 12.3154 9.99783 10.0007 -6.9808 0.219046 
7.665 6.50813 14.6947 4.15969 4.11745 9.9404 4.55111 -5.3367 16.3375 
4.6738 -3.93749 -7.73014 -1.71602 5.62458 4.51838 -7.8117 -4.6102 16.0807 
0.411488 5.26002 -3.41683 8.43438 -3.35573 -0.75995 -9.02351 7.21944 17.1286 
-18.4464 9.02919 13.1851 4.22988 18.3155 4.94917 -5.44768 -10.9924 12.1938 
-4.76306 -4.91295 0.531501 -5.65946 12.8518 10.6541 -15.1371 13.7722 1.10461 
7.63041 6.77698 -8.41529 -6.7819 2.93197 15.3812 -3.71543 0.686899 12.4437 
-7.17099 -3.41953 9.20192 -7.86501 -12.4937 -2.85569 7.22173 20.439 1.29907 
7.21068 -0.869187 2.10562 12.1539 10.1449 5.95065 7.9825 14.4064 -4.99407 
-1.89178 -2.88601 -3.31221 -1.67618 4.15931 -8.04193 9.25644 12.3345 -6.74202 
11.0267 -2.35587 11.0588 7.40642 12.8627 2.9723 -17.4812 2.24908 -8.38847 
-1.24848 6.89938 -8.12729 12.2592 4.81564 10.4656 16.0695 3.94548 11.9454 
-2.53464 6.54999 17.658 -17.6011 7.04474 15.3343 -0.16866 11.8587 13.8871 
-18.6878 11.4775 3.98949 3.49089 -6.12309 9.74639 -7.7067 -8.06721 13.0097 
0.15712 -12.3038 9.10676 3.15216 -4.59419 -1.8159 -12.5102 2.34417 -1.00416 
-13.4497 2.46619 9.60406 1.22724 -0.401597 12.5782 0.240038 -12.6751 1.01194 
6.0507 2.80574 16.1059 -1.39321 1.66616 -2.13562 7.95089 6.94633 21.3082 
7.62523 -2.23958 3.69939 -11.6824 12.7474 10.28 -8.56732 -4.10433 18.6998 
-2.46049 -1.44476 -0.191127 14.9051 11.5985 13.8283 10.5255 5.17487 20.4426 
-1.0292 19.1221 9.38052 -2.60951 -3.68493 12.2147 3.65295 -0.805901 3.92576 
-0.534889 13.2367 -3.37482 -17.4086 3.34996 -6.30585 11.1831 8.28859 14.9822 
-5.48559 1.5518 0.352351 3.88483 -5.72704 -3.68185 0.831743 15.4302 -2.55048 
4.47443 4.94265 10.1555 10.7772 3.73926 12.626 -4.76193 13.5092 3.53506 
-2.66071 14.2671 21.6285 0.458715 17.5335 -5.58737 3.6596 6.35611 16.6512 
14.8652 -0.0677019 -4.58006 -12.2104 -4.37709 2.46851 -4.01046 1.62758 -9.08589 
7.53901 7.65649 -2.55894 -6.28096 0.334028 12.4923 -13.9283 5.33726 4.86833 
-3.2616 4.65136 -13.454 12.2963 8.60337 11.8196 0.373697 5.81338 15.1022 
-4.83807 21.9946 4.46594 -15.3057 5.88598 -1.8517 -3.66254 2.21262 -8.11236 
6.77333 14.2054 -5.3593 8.10678 -2.47142 2.78049 -9.12691 19.3908 -3.9695 
-2.09356 -4.98717 13.4884 5.68349 4.66395 -3.52332 -5.52067 15.117 -3.12934 
4.20978 7.58567 -4.79695 1.96942 3.81843 -9.88339 10.2665 10.42 11.5255 
-5.10454 15.5089 7.4387 -17.0654 5.6966 0.878443 13.3558 8.7739 -5.72058 
-4.55012 16.0316 7.82386 7.49618 16.7095 -2.67913 -7.8682 9.21508 11.0623 
9.94929 14.4109 12.5493 -12.0138 13.6324 11.489 -5.78312 -8.76161 2.80484 
-10.3729 16.7816 -4.45332 1.62782 8.42302 14.8554 5.73776 -5.01092 -3.09004 
-4.48216 -5.17962 -6.47976 6.3755 -6.42205 10.5823 -9.37338 -5.68848 12.0917 
-4.24039 8.45373 22.2419 14.3525 3.99485 8.6538 8.59564 14.2255 -0.227329 
-6.97639 -1.30201 14.0028 2.23749 21.0707 18.3848 -5.7355 19.0972 3.07869 
17.2706 7.51344 6.55091 -10.1232 11.8479 9.26274 9.91954 15.9137 10.7647 
-2.20902 14.08 -8.28955 -12.6776 5.02547 6.88157 9.21483 -1.05889 11.2744 
-2.03211 5.07336 -14.4453 -4.20817 12.6629 14.0515 -14.8685 2.00376 3.75929 
0.43042 12.6319 14.115 8.01976 6.59636 -10.5297 5.22946 -5.58194 -1.03479 
-7.85328 -0.579831 2.83428 9.42839 -1.29937 -8.13042 8.49311 -2.37699 8.01533 
-2.20267 8.84207 5.5019 2.23805 -10.4591 14.6657 -18.5757 2.84687 10.9702 
2.65857 9.52522 -4.71627 -6.35193 -11.4778 3.0532 7.19895 7.7021 6.90846 
1.98115 -12.1808 -2.46691 -7.94264 7.13967 8.78807 -2.71295 -11.4196 -1.00225 
-1.88286 8.04041 -9.89173 -3.49928 9.2074 -6.34757 -8.46425 13.3048 6.75088 
10.2714 0.119063 -5.14686 -0.32543 -7.74324 12.6565 -7.93679 12.1018 4.22789 
-3.27845 11.3339 22.3285 5.35826 13.8345 1.01228 0.790877 -9.26318 -4.72381 
-17.656 -7.99188 5.07979 -12.4721 8.53929 -4.10942 1.4707 -11.1329 11.7856 
7.64 9.45157 4.83293 -8.95401 -7.73671 6.47049 2.22698 14.6387 10.3272 
4.76701 -0.240137 20.883 -4.41381 -3.87022 3.23598 9.10372 -0.382647 5.59153 
9.16052 -4.89864 20.1837 -5.1992 8.08472 -2.65067 9.08572 -7.52797 3.59084 
-2.9137 -7.06507 15.8872 -12.4457 -4.55001 1.68673 7.51607 8.57318 -3.09182 
-2.99577 -6.57322 15.4873 -1.37803 9.81525 16.9696 -7.35358 -7.95406 2.54246 
-5.9876 10.4321 8.18434 -6.35606 -0.735206 -7.16627 -6.71647 1.98263 16.2115 
-19.125 8.46251 4.54745 9.71845 12.1969 3.47081 -4.22068 11.7065 -4.16371 
7.15602 -7.13054 0.828957 -8.84667 2.37875 -5.76326 -3.37253 16.4069 11.2245 
-11.1946 6.40955 -12.1151 14.4273 -3.83566 -1.3033 -0.932184 12.2027 15.677 
-4.23689 -1.98368 -6.51596 17.4909 -8.51448 4.53905 6.28131 -1.96835 -5.96824 
18.4212 1.8814 9.7809 -9.12441 7.0953 11.5346 8.12451 2.44381 0.399578 
-3.94392 0.869967 10.5613 12.256 7.88285 -2.23864 -6.63724 7.68759 1.9841 
5.08217 4.41675 16.3351 14.3064 -10.2325 -3.34043 3.34053 2.37878 10.7429 
15.6421 11.6137 18.4793 20.0642 -6.20781 3.00306 17.8818 13.9246 15.4575 
3.28383 -0.0594084 10.73 8.83859 -5.86597 -3.37092 2.24661 0.624567 12.2292 
7.85016 1.46814 0.59109 1.18157 -3.26846 16.7349 10.314 3.54301 -3.81696 
26.7228 0.20571 8.26633 -0.397135 20.581 11.9433 8.43176 5.83034 -5.39738 
11.6574 20.9121 11.5306 10.3795 -9.27249 8.00649 7.71275 -9.74961 3.61354 
2.24906 0.0840124 13.78 -0.750029 1.15421 0.519585 17.1641 -1.20875 0.868597 
14.5739 -4.89425 4.55848 15.3579 0.500078 4.26648 8.31498 -10.261 5.79718 
8.00379 -10.1348 0.402886 9.94995 17.8295 5.30516 13.2219 22.8887 4.96286 
2.05642 21.6033 4.75703 10.8277 14.5022 17.9988 0.339233 9.55948 8.69105 
8.0772 6.32295 -5.48995 13.1792 3.54968 -13.0226 14.1508 -3.38953 9.44949 
15.8031 -3.00201 11.4768 -2.25438 -3.47584 13.6872 7.29018 8.55582 -5.38244 
21.9237 4.85847 11.9578 24.2411 5.83828 7.4308 8.53991 9.28637 15.9734 
-1.27258 -0.960726 -1.12834 -1.16602 -8.64443 18.3819 -7.70729 4.33154 7.18394 
13.9726 -5.80588 9.4577 15.3185 -9.32362 9.03786 16.2753 -2.66345 2.29688 
-5.50515 1.81018 5.2579 0.731161 1.21984 13.8104 1.52878 0.0213805 -7.82338 
7.85661 -8.15652 9.77968 18.9379 -3.99077 8.74887 15.7771 1.7587 17.3953 
10.6875 3.0235 -3.61611 17.6368 2.64719 22.1421 17.4934 6.04755 5.49361 
2.30009 13.0816 19.0771 9.66942 -0.116106 13.8394 4.22526 -2.15161 -2.52625 
16.96 11.4345 -2.18507 13.5903 3.91149 21.3521 14.7996 16.2719 14.8543 
-0.44514 8.78365 16.1096 -8.14913 4.10744 4.91501 13.7313 9.65588 -0.95401 
7.7654 -6.13435 15.1133 18.4937 12.4048 20.9632 10.3457 5.51979 -0.100768 
21.0292 3.5191 -0.541824 6.96508 20.1332 2.49198 15.1502 5.3342 17.1828 
-1.5158 7.92056 1.4932 10.319 16.1685 14.2879 23.5407 9.0229 5.38436 
10.8113 14.818 -2.18323 16.1083 7.78735 20.5774 20.1804 -0.84553 -2.01459 
-1.47762 6.17618 -1.01768 9.03053 6.05122 -10.0886 24.0012 3.6611 3.01802 
[...]
CELL_DATA 2484
SCALARS scalars double
LOOKUP_TABLE default
-1.9754127582 -5.4172011642 -6.398258265 -1.6336356525 1.8931397413 -9.1687595566 1.6307671024 3.3116879165 -3.5613171172 
0.40650609912 0.87357049017 1.2951385938 3.3235164367 -9.3697769663 -1.4792085415 -1.8523715665 0.77861745394 5.7823312694 
5.9764321212 -6.649104481 2.1077041401 -2.1520937515 -1.4181865426 -7.7885133508 -8.0193352812 8.7343277351 7.2297514326 
-8.9135545596 7.9580161527 9.1336213368 7.8038217764 -7.8149679073 -7.9513454176 9.47016846 -9.9787386663 9.7688452101 
-5.2056897781 -6.9060113823 -8.3568328321 8.2287265503 -4.7549125137 5.1166535703 -1.1169318256 -1.3966589938 4.623518384 
-9.1898908276 7.0400193345 -3.462168997 -1.8265977899 7.2351870912 5.1749001472 -3.27663056 8.7978897127 -2.1144707641 
-0.49170653157 -4.9857470517 -6.2537764804 4.6019522685 3.4138138615 0.74727668139 4.6908730073 -2.994666094 -1.4926422039 
6.5107502116 -6.0458891176 2.363497529 -2.1860658895 -9.0662487529 1.6788812711 5.534773215 5.4715529132 -9.1408591138 
8.4231206772 4.4912763014 7.5725319751 -4.4310085263 -5.4725555786 -4.5259346362 9.4965115065 -5.4846243638 -3.2382528482 
8.1476091717 -7.2292517981 3.048283253 -5.4504573372 6.1093149418 2.6227982856 -8.9842983167 -4.081153927 -9.559112574 
9.6574492965 -6.4885316142 -3.6638758517 4.2467669297 7.0607778243 8.8604948598 -4.987280904 -6.0342713904 6.6220753946 
-8.5172243906 -8.6347958689 -7.2351588226 8.8550470365 6.492496832 8.155957211 -8.8030009756 5.1918607323 -7.1638693047 
-9.8312814636 -9.9220134271 -9.5945200504 9.906666289 -4.558580318 9.8181413399 2.0936584644 -2.0579978121 -6.6713816407 
9.4764199279 -4.4310214552 3.2299274629 0.55099211095 9.5273009005 7.2189859733 -4.4544289866 5.3744728853 4.7523138379 
6.1953615023 -5.8267955534 -7.0767727922 -3.4196756723 4.4786729573 -6.1857768529 3.9471741791 3.4788082423 -2.6780420467 
5.3618522703 5.4520072021 -4.1268844976 0.77857744466 -7.883386139 3.7053402568 5.5626761444 5.9646068884 4.3052520237 
5.5461726451 -3.2101837797 0.3522010306 -1.5189796041 -8.7885581514 0.97551613179 -3.0371090484 -2.693282579 -0.65341551472 
-8.3072135949 9.1015935089 4.5850677467 -1.6493508022 7.6807808963 9.6723619392 7.2111166948 8.6786900704 -9.4814369 
-7.2487534485 -9.738671705 -9.0994503687 -1.4234739296 -5.0734384315 3.2883229369 -5.0088272122 -6.288011689 0.94116981316 
-5.9009450568 2.0177854786 8.2819882916 2.9911283907 5.6171349277 1.1432922431 -9.9504918271 0.61652935951 3.0792439649 
-0.35348006547 -9.8818933815 -5.7418539018 8.3946889932 -1.935367754 -0.24687892869 9.8621226436 6.5856980734 -0.82967303822 
-8.0588851597 4.0695766107 -5.3674395835 -1.1827714174 9.979044851 5.3959054103 -2.0297762016 -8.6585612544 2.7104428089 
4.2227159272 -9.0812411095 -8.9342310291 8.986338732 -5.3777741362 8.4893332571 3.9806493724 -4.1458920362 -1.0187921957 
-6.1363575348 -8.4886379435 1.8971796828 0.75579035993 6.8110294718 9.4606927327 -4.644863784 -3.8692221438 4.1915260735 
-2.1375947785 3.9826296686 6.7414998564 1.5604073248 -4.6700271431 -8.7600047574 4.2865456466 -6.6330918596 2.1349096762 
-0.15796292614 1.4554586008 -9.8036366956 -6.2521209139 9.789814452 9.4823850604 6.8166516388 7.981769996 -9.5927193595 
8.9074985132 7.9906519074 7.1873847063 -8.9519049552 8.6355297137 9.2501700711 -3.0326035391 -8.6524626229 -9.678185645 
-7.998080735 -7.2198721708 9.7657327069 3.5542411308 2.3007949638 -6.2128514697 6.9802276483 -0.91938533509 -0.50879607025 
2.8052743848 6.2673373565 -5.1241121518 -3.0703236305 4.1434752065 5.7761678429 -4.5792614949 9.3250234256 -7.5940303735 
4.4957021865 -4.4488383763 8.2988550948 6.7885223804 -4.4379337611 0.022262979237 7.7564996137 5.2563856175 -4.6370934144 
-5.8725999266 9.8294522062 -6.4137752346 -3.3158592358 -6.8205661845 9.4187037563 -3.2049319856 7.4505999545 2.3130241772 
4.5576139394 -6.0933692023 1.9596345973 -0.34013047522 -7.1728635123 -6.7597461613 4.6133711483 3.0775274927 -9.2437503214 
-4.7623389705 1.0195280558 -6.1276884374 -9.0836543971 4.0600190709 7.1466791028 6.9258423841 -8.6302113816 -3.2156928189 
4.9545200092 4.0905203774 8.3219626719 1.1632517807 -5.5081691012 -3.8981490429 -1.3700676537 -2.42805515 -2.8001830428 
7.9330928582 -5.774031988 -1.6681255642 3.157175343 -0.27019759366 6.0490418376 6.1162556339 -3.9641539272 -3.2488235111 
9.7509316783 4.3040795239 -4.1267179614 -5.8296607771 -3.6441171487 9.8464951966 -4.4473302078 7.7795929695 -0.83944496782 
-7.3910310528 5.5792613019 -5.2523006729 0.60692442367 -1.713364074 6.249431345 7.7706454576 2.0163961125 -1.6955946953 
9.6847499846 -8.5774183128 -7.0452062752 8.9039248122 4.8110041715 4.0523444191 -1.4209610136 0.46343221687 -1.8859887091 
4.88031393 4.9570396293 -2.6331884315 3.1008686473 -6.8735111103 -6.5016063536 5.4965011282 -6.8595130428 -5.4358390742 
-3.6770822806 -3.2262757328 -8.8866359892 -3.5665311275 -6.0755910993 -6.7010577584 3.6171951136 1.7727359999 -3.8958774508 
-9.7489170968 -2.0644846722 9.942297581 6.6073487207 7.9634108814 -7.6207849327 8.9666982813 -9.5801509202 -4.4245065053 
8.0794976346 9.5319273415 9.8631510038 9.7724658708 -9.5148600112 -3.261720665 -8.4177108593 -8.0151271603 8.2305317532 
9.2780352454 8.3334433672 -9.7657516565 -8.4550231921 5.5418117407 5.0116442984 0.51860047628 -4.5406669723 -1.8347766864 
0.39173042335 -1.9253403585 2.6433253964 9.5606494992 -1.3468790161 -6.6830087332 -8.4912911797 9.1461264422 -3.7272103399 
0.56250838953 -5.2429936207 -8.2767592314 8.6871654724 0.0068220282206 -3.4582532584 -2.9575007451 -3.0521211327 3.528709956 
2.0678859044 4.5594060915 6.8923305109 3.2283079085 -1.6433364386 -7.7378724252 9.7209684096 2.8890547805 -8.0331330696 
4.4969971037 -5.9326591908 -3.5553292146 5.1656256784 8.1483932836 -3.5730628034 6.5194748318 6.7884239403 -2.7493791978 
3.5751273411 -3.732656227 8.0898966097 4.8966900607 -0.20662929087 -7.6882852381 3.2359420658 3.2381237778 1.1397213292 
-9.7685699279 -2.7581254736 -4.2127639212 -4.5141580377 -2.3732391616 6.1764137293 6.6002797536 -9.3482794611 -7.2654491283 
9.9617157915 -9.0304053671 -8.0656043514 6.4653311471 8.3048045478 9.2261522663 -3.3568997006 3.7842721975 -3.812670817 
-9.8131790075 -7.5277197286 4.2160434265 -6.7334184851 2.6816086832 -9.5026931883 8.4681468625 4.715442477 4.999401721 
8.3912361289 7.0654247263 -7.1173399222 -8.8070030315 -5.0603840036 6.1383826875 8.9097437159 -6.0056106452 -2.4093433784 
-1.2933790316 4.3890983154 -7.8517989579 -2.1289902878 0.37354890971 1.1952971658 -4.7011651223 -0.037369055739 6.1359501796 
-8.6435694701 -0.42987087127 9.4161793957 -5.3817927112 0.015681994087 1.6246108039 5.0532395191 0.81588018985 -7.6672467449 
1.1495430289 -0.66461593102 6.811949248 -9.8164527127 9.774073956 -9.6134163596 8.6889517206 5.3829929916 1.8137533554 
-8.1604491123 6.7348927347 -7.9276635037 4.8220366721 -7.3157028404 -4.704178226 8.9637389541 -4.8362542452 2.7242074974 
-9.4002935111 6.2284907643 7.6118358629 -6.0465110683 -4.7207222959 9.0000236685 9.0479261182 -9.9369309953 9.5133093762 
9.7211397616 7.6030658343 6.1630287539 -8.9111058242 9.8130162505 -9.9313183696 9.882669803 -9.2705781261 -9.6543568809 
9.2230222576 6.3437960885 -2.0055694531 -7.9587481254 -6.5936540204 5.0342771775 9.9863852284 -5.1409250929 6.1995607363 
3.5942375264 1.0019456278 -6.721006228 -9.3495252836 3.3228522605 -4.44726843 7.2492577728 1.3419715668 0.46909715004 
-5.7998607311 4.7184056268 -2.2209113635 -5.6955830821 9.1341107671 0.14265390117 3.6509716575 -6.2793206062 6.3969575035 
5.6114606005 -5.9248863777 0.5896953825 8.8802597695 -3.7050699321 5.8999153453 -9.5098861767 -8.9151738338 -2.5778287078 
-4.018705708 9.5079660429 -0.47717921853 -0.34808505713 -8.9764280577 -0.43364258025 3.8429559062 -0.49759084917 -6.87596516 
5.4950683709 -3.0430032666 -6.4565541592 -1.012259018 8.0848228839 -6.1862094979 -6.4204837073 -7.5899012984 9.2445620924 
-9.3422147824 2.5829275291 0.67439717099 -2.2550608814 6.5652269344 -0.82021335429 -0.6044524909 -3.6131882165 -0.29021418497 
6.7505219794 -5.3055555484 7.0040058754 -0.15515877107 -5.2346567557 6.0210613832 6.4670783222 -5.9178955795 -0.63895905461 
-0.35235199559 9.8370478507 5.5264243613 -6.4842347836 -2.1393814602 5.4778830912 0.80081345041 -9.2092625165 7.3737474821 
1.011087203 -3.7451131518 3.3943527208 0.89615741149 3.8593914948 -9.1812814534 8.6685309618 5.1294231582 -9.1579082478 
-0.17830377216 -3.7421687892 8.3313267168 -6.201444435 5.0074321737 3.4665879503 5.6121596288 -3.4887830998 -4.8011581674 
-0.89360117098 9.659947103 1.4383177671 2.5146077314 -8.5410242044 5.1723709598 0.37766663591 -3.1466607642 -2.9791729386 
4.3574614617 -0.4113607751 3.033292754 -4.0136709976 -2.7222805842 -5.2582334786 1.0156532261 -1.7286112224 -6.2781313853 
-5.0810019334 -0.90879852244 7.4804888914 7.3404681772 -6.4936229821 -9.8113216669 -9.5365898992 -9.951857726 9.9962163228 
-8.8386926533 -3.5307701457 3.1978926375 3.672839479 -8.4808812281 -8.9275605077 2.9607139638 8.4610025471 8.9479637813 
9.8814067673 9.5044679982 -9.6877536557 -7.5389685206 -7.1608858336 7.3148948848 -7.0500719649 -1.0630040278 -9.2758033291 
1.1653765574 1.8435495514 9.4179349379 8.5479262359 -8.798976288 -9.5391710874 9.5274209879 -5.1036193278 1.0625106397 
5.0643636056 6.0635276664 4.5725163696 -0.55937982647 -2.3560175188 8.1589480859 9.8809222285 6.4265218551 -9.0042476419 
2.4907062511 0.24352571263 -6.2844646193 -5.1130539966 -5.1055138817 -1.9313950291 -3.5927083496 1.7674331424 2.7616448968 
-7.3825506052 5.7362957867 8.8919983107 2.5674012556 -3.0964045136 3.7100036963 -0.81264765707 -5.8976720541 5.9960305515 
-1.0689689883 -1.9932867053 9.7300661825 8.880575052 -5.2074768426 -8.9790454759 -7.0927979912 7.8898349793 4.9510834804 
-6.1019790451 -3.9997007875 -8.9619307441 1.673470145 6.0861403974 3.4837299412 1.711661838 2.3390486854 2.0944081614 
4.5308293048 3.5393633723 8.7379290454 -7.0729141144 4.8393949666 6.3036428193 8.6883914337 -6.7115751321 -1.528177472 
-7.7097282801 -7.1643011127 3.6964776187 -1.8635296561 -8.3816803717 -1.023976452 0.69681713935 -6.1744516804 8.2092629272 
3.4946407366 -8.6760872785 2.5016636744 7.0740690441 -8.6690257637 -1.1783507153 2.2968075349 -8.1022704286 -4.879863021 
2.4219073335 2.8682678243 5.446422586 4.4339567117 4.1606656393 -7.7188965505 -1.5555418411 0.38711163048 1.0240564871 
-8.0894080051 -9.4264034793 -4.2112849313 6.1566410568 6.4888363362 -6.7383593959 -5.4556103466 7.7794510545 -4.620925846 
-0.63174442654 -1.0338467336 0.57041309343 9.6819876467 2.6316152769 8.2434138251 -8.3377631199 8.1088346869 9.1793166963 
4.8417070967 -7.6514884604 -9.9893655898 -1.0245541713 -0.6943820155 3.4906690854 -7.9468087535 9.3182330294 6.1379318871 
-8.5244962081 -9.9328040197 -9.7877133284 -9.7939742503 9.9019581509 3.5340627895 6.2382275786 -9.0313685984 -5.1629138048 
-9.8528772565 -9.0194892161 9.7496962862 9.2538154092 -1.0895364339 -8.7147925697 8.9037060033 7.1366408763 6.050801724 
-1.86927548 -1.3589559587 -4.9576619111 8.7520722829 2.8375492143 9.6609192266 -8.1810645117 -2.5816677494 -9.1395423065 
-6.2571441948 7.3608460876 9.3846300263 -6.5045415632 -1.7427626742 5.7696298287 -1.4880203436 -5.5986829788 -9.220055211 
6.1186310663 -5.9513342481 -8.3867950976 -1.6295317516 4.0259749039 8.0577360622 -9.2944279174 0.46963031793 8.0360234492 
-3.7918564348 -4.4893890986 2.4871280134 -2.5770366026 -0.54562469601 -1.457043874 -0.019540018637 -4.2363009263 -2.21383683 
-8.0539519143 -0.65008449408 -0.68930804511 -1.1591584419 1.6029040546 -7.555706807 -2.7345537107 0.47065098445 4.3286136656 
1.6477448658 -0.25914050376 -2.0642685128 -2.0969019882 -1.1927803808 -7.9604332275 6.5581196977 1.382914914 6.9198227677 
-9.6175907766 -4.6362093398 3.4258186651 3.9743069446 -3.5575857051 4.7435596796 -1.7261654902 2.2969613172 1.6118894504 
-9.554179248 3.8240034401 3.2617510507 5.3153730691 -9.7769293002 -8.6799648462 8.826841831 8.9682858994 8.4008496703 
7.2212338446 7.6778187517 -7.4215386124 -8.252348874 -1.902927297 5.2631158165 5.8916921678 1.6796654204 2.9505316752 
-4.2185767016 -2.6200908632 5.0221097316 9.1327050438 -4.6665661815 -6.2012921382 6.7488531183 -1.2773627433 -8.3212558824 
-0.42171820341 7.6392671461 0.065900749785 -7.9211418684 8.4459153122 4.7582759416 -6.682491222 -8.7220887421 2.2444367297 
-7.4501555651 -1.7508835804 -5.3584837682 -8.2105849258 6.9330618014 -7.8771637882 8.2177588213 4.9323135873 -3.4697356692 
1.9573034351 7.6010898685 7.5387193757 -9.2139653035 -9.0369875897 8.4942848801 2.5040988223 0.33092030158 -2.125603958 
-9.6391506059 7.645760978 -7.0190128838 6.4554009926 -6.8769965764 -2.6705125049 -0.62086152298 3.3816404508 -3.1838845362 
1.4766055678 -5.4491163655 0.085574766377 5.4645140308 -3.7525338954 3.0423163658 -0.57958059745 2.7821665753 1.487629549 
1.66111279 3.7101721999 4.133251137 -3.8771248941 0.46979017253 -4.2204465428 -4.1457230149 6.1398656939 5.3333605858 
3.6570088589 -1.5701554882 -5.672540122 3.9817596372 -4.3273464652 -3.1405693716 3.1355023146 9.2240841216 -2.4185313844 
7.517789478 -8.5730067611 -2.8327570334 -6.975660102 -0.81197585421 7.7327075333 4.1367902476 -7.226262937 -0.65534263573 
0.31041488915 -5.2863487492 5.5334533118 -8.1704921716 6.5773220497 -3.4457406011 -7.1507821948 2.1608216378 4.5002222065 
-1.5222485701 -8.6598477044 0.80254112309 -6.0093729822 -1.1002480965 -2.1410257432 2.9462673364 -2.1965727619 5.4751375461 
6.0306715096 2.7017724118 0.19378675283 2.3495008556 -3.6978619265 -1.141312837 -1.3137638634 5.5782145834 -2.0745112823 
-0.7809430794 -3.3446515866 2.7407172529 -9.1335676376 2.5328109491 1.5721291424 2.3012493958 -1.6066747402 2.6805079275 
8.7732678245 2.6772799107 -8.405125924 1.1230960564 0.82572264574 -2.5084308473 -5.3618402968 0.91540715712 -5.9704117543 
-6.0610302543 8.9819022735 -2.1094043988 -1.5320311645 -2.8105779365 5.3541440355 -0.36249872408 -0.73042782831 -3.8721225453 
5.1994696662 7.301074975 9.2801579703 -4.4501879059 -7.3438437221 5.1332508936 8.5091664988 0.96577308952 -7.3129970681 
-8.6296383276 -6.8258954584 -6.8168351483 6.5818144272 1.4899757529 6.5313439576 -8.919524766 -5.3401899717 4.6802035634 
-7.0730239202 -0.22258976164 -6.0122162212 7.4443839876 -5.8549973034 -2.9660993865 7.0714324415 4.7884513025 7.4121568655 
-1.2949719415 -7.6320407461 -3.2975949106 8.716181228 0.86294533761 2.3998673521 2.2180248617 -2.3692238009 0.14994280078 
0.5666616094 -2.8254171249 2.9592790501 6.232061004 -1.6252182847 -0.082648026698 -7.4220696926 -2.0657879619 1.9071405287 
-4.4132593089 1.3479539111 -1.7392309559 2.7510008895 -0.95903413457 0.40190721847 -7.7569320139 -0.01058789472 -0.99079230821 
1.3776947308 7.4466521819 -0.098197244316 -0.16571585246 -0.49797429019 -4.6983677682 4.5648693049 -5.1810977847 -4.0990757852 
8.7890646569 -2.7651370731 -2.6775078478 0.94663616153 -4.6638814316 0.91488112743 -6.7176058997 8.9699757904 -4.0836424798 
1.284718176 2.9214772075 8.4614454214 2.8291462029 -9.8283882643 -2.2519211622 1.9314423052 6.2755529564 -1.3787280178 
5.4606436355 0.0021298559429 5.6808519851 -4.7947257461 -3.216503177 5.1168109091 -5.1739883276 0.69104998684 4.2082588146 
6.1719859535 5.5672062913 -6.946001111 -4.4550384439 0.9825060249 -6.8263159815 7.7244157223 -4.861001457 1.977872137 
-3.8461348202 9.8845388961 5.1822880917 -5.7907807624 4.1444658945 5.2275580042 1.1364727365 8.9766495194 1.8113726154 
-9.0982947551 1.8325229104 4.9580844363 -5.6684232944 -9.6413823497 4.188679355 7.5962361299 -2.9073492078 -7.9100628612 
0.66159929369 -9.761289982 9.048951227 9.7256859027 -5.0747247268 3.0581655428 3.2957494574 4.0278246431 1.2554635658 
7.8341679336 -4.1726827968 7.9367277093 -8.0350275462 -1.2703620917 3.209772888 -3.4103907482 -4.3833713273 -9.6036338498 
-3.9681074761 8.8988404538 5.1251440134 -9.2239501214 6.821624582 6.0292760718 0.42106462036 5.7294686992 7.2562151057 
2.992183239 -0.65019615502 -3.2029248959 -7.3670213436 -3.6999308706 4.4157858786 7.1144968113 -4.0651920082 -3.5967626078 
1.4311724364 1.3193796846 -3.8725918439 -3.9090703262 4.4276182069 -4.1706923592 -0.050545173006 1.5003944341 1.6075767805 
2.9358020571 3.2555829746 -9.3246770793 -9.9314232701 -4.7693472487 8.1547977909 7.4630468759 -8.0833494392 -7.7263056475 
4.3797318574 8.4562138704 -8.0272438429 3.272592924 2.6411997313 6.2827776371 -8.2353816973 6.383762281 -3.6199430776 
-8.8773643324 0.74335186397 -3.5725444487 -0.045172441147 0.30272033524 -2.6440596978 1.9886084501 -0.083678640134 -0.64206500764 
3.7286729988 5.241400768 0.98843529271 -7.2968022434 9.3027608705 8.1465100326 9.4022466583 -9.9704970277 -1.0815297949 
-7.1024732325 -5.1494213244 7.0782094584 -1.6548974267 4.961335532 -1.0463784986 -4.2903383791 -5.43555415 3.7549459979 
-0.23204086129 -6.7808181229 -0.47202711535 -4.8229327713 4.8577868815 8.4877260448 -1.8001972684 -4.4903560612 2.6429263747 
-0.28292517311 3.1617606576 7.0980033564 4.9714249147 2.3821744071 -5.9749668235 -2.6794408511 -0.36861214958 -7.6355125111 
2.079936127 5.8439047386 -8.5683680929 8.9455445819 -2.1259495802 -2.7985026598 -2.7450566124 6.6519946988 1.86418583 
7.6658951411 2.529941641 8.3080199911 -3.461815535 -0.83852884924 9.3986149509 1.1721676752 -7.4237639171 -5.9626784736 
-3.879204323 8.5982547599 -4.3074376311 -2.1660032432 -1.2977704245 7.6694441153 6.221781538 4.0713701633 -7.2136095279 
6.4757380834 5.2649974449 -4.1091462086 -4.5508414927 3.787227196 -5.2871913303 -3.9677875229 -1.3344405488 0.92185909802 
9.3891535396 -4.1788801855 -2.8806431801 -6.9659083622 9.6380955612 -5.6922107307 -3.4716254277 2.9901432443 -7.3212295615 
-6.4894866709 5.761314907 7.8607902882 6.0198462175 2.949549606 -3.764420109 -7.0579802466 1.3855296957 2.9203323084 
6.1367799997 -1.0333998672 5.6840584273 -1.4671195159 -5.4840330733 4.5195922821 -1.1823633066 2.5047996531 -3.1234120068 
-6.2105340031 -4.8376537538 -5.2162770736 5.5645924938 8.7920150009 -2.9078305618 -7.473237951 1.3506203986 -2.6572687261 
-5.7560056847 6.1712918812 -9.5573954039 -1.1140448051 5.580732429 1.1655804663 5.3751391015 7.1364837366 3.9073923706 
-7.1096544119 -7.5651792511 -9.9211134112 -6.6290308008 7.6151180087 -9.648226076 4.4226474705 1.7873883226 -3.3447347493 
4.4512732348 -7.1456872925 9.5472567792 6.3012553454 8.5271518987 2.309292118 2.6248050851 -2.3570074443 3.4540080368 
-1.9385095688 3.6642710958 -1.496636556 -1.8189007555 -1.5647836742 1.7946135616 1.3722565575 -1.9945273025 -1.107989736 
-1.1454358988 -1.7177112528 -9.400850122 2.7382093894 0.22125870221 -2.7584883203 5.0514936266 7.7729523442 6.2170328663 
0.11441888905 2.2655453541 -6.4115951748 -2.8344237764 5.512872311 -5.1494064311 0.073492119383 -3.5186923537 -1.5316432749 
-3.3580737664 2.907137259 2.3737569616 1.0945698544 -4.3080004203 -4.2783356367 5.5158231141 2.2845587713 7.0258014049 
-8.5983403447 0.18897693466 -5.4717090505 2.9453617059 6.8683994256 3.9154263735 -8.2962784412 -3.9846264114 -0.0016332920796 
-5.2402962196 7.7315143062 -5.26755489 1.3124890856 3.0178296164 5.4866918305 3.2269449364 4.1139746827 3.4887467529 
-5.3746317209 -4.5830610012 6.6394266228 -4.8915485293 -2.0651644018 6.0759105266 3.225520738 -3.669429979 -0.95115695911 
3.6953433116 2.979276594 3.8623559963 5.7588113636 -6.9716086226 4.4832789191 -1.5347324494 0.75592388142 3.5668279667 
1.858698679 -9.2755745355 3.753444695 -4.2406090835 -8.8529946026 -6.0711536849 6.7700905146 9.587369559 6.925432894 
6.7466513444 -8.4334261943 8.2256820667 -2.6117411576 -2.7267751344 8.1130734875 2.390191076 -1.2221083085 -9.2827474624 
0.19473259085 2.1443879851 1.1604426625 4.5941276959 -5.30669421 2.1127247346 -2.1299719323 -9.1714069018 5.5043209706 
-6.1942029245 5.8362724565 7.555291679 -7.5418725769 -2.0476052788 -7.6363461442 9.0489574402 4.0501298624 -3.897185971 
7.5914751858 2.0747046403 7.6993680498 -8.4449224321 2.3349667106 2.4601856941 -7.306494506 -4.3653374287 -4.779617605 