# vtk DataFile Version 5.1
vtk output
ASCII
DATASET POLYDATA
POINTS 1244 float
-11.003 -1.62994 1.16754 0.87214 8.37189 -8.4035 -1.65365 -9.89448 -2.52123 
9.27983 11.7369 5.25258 -5.88216 -0.997104 -3.30248 2.23378 2.85552 -1.32629 
-0.537995 0.645784 4.38433 -1.35613 -3.87198 0.126948 -2.96616 -10.0909 21.4655 
-14.4917 -19.2028 3.80823 -14.9134 4.19859 -1.48846 -12.1315 -16.6283 5.12142 
8.26756 15.9682 5.96561 -13.2813 -15.6082 6.67225 -15.4243 3.1748 9.1523 
-15.4808 -20.0978 10.2273 -11.7237 -10.4309 -7.59705 -3.22714 17.1541 -10.9248 
-13.7719 -14.894 -11.1953 -8.15578 1.33382 -7.71523 11.4026 15.4348 11.6575 
-20.2886 3.7584 -20.2662 11.5343 -5.55956 11.3504 -8.71176 6.98755 -8.74748 
-11.0383 27.8503 -11.1899 -17.3519 3.50347 -14.5409 -17.8878 18.5774 -1.81651 
-5.26046 8.11689 12.496 -22.3226 -3.35109 9.44487 -9.5177 -14.2612 -5.0419 
-26.5105 4.0795 4.97915 -10.346 -14.6102 12.727 -23.3408 0.894358 6.82749 
-6.58093 8.04423 -4.84008 -18.1033 17.2138 16.207 -12.8493 6.43605 21.1252 
-21.2453 9.78528 -4.84654 -6.66895 -2.85542 7.61417 -21.1173 8.66348 -9.97633 
-22.9284 6.58001 22.2471 -21.5123 -0.814305 -10.7021 3.02331 0.662896 5.4562 
-17.6895 -5.89363 8.68321 -17.2043 22.9599 6.73833 18.1204 -18.8197 0.76293 
-0.806071 -19.9715 -0.792377 -4.72828 -12.0923 15.3366 -13.1549 -10.0616 -2.51769 
3.47435 -26.728 5.4254 -14.1421 -11.1437 12.9689 -8.43067 -18.8929 -2.43205 
9.55058 -9.84654 -5.04116 16.1288 -18.5053 14.2655 13.6847 4.69131 -22.5297 
-4.76171 13.0388 -16.6272 9.31738 -0.604668 -5.42144 -9.64679 8.47544 -21.3685 
21.1067 6.21829 -24.1381 -11.0449 -0.361482 -21.3919 4.35257 -0.71988 2.79766 
5.46665 -6.53206 -19.0764 12.0364 21.1448 -15.5277 2.51634 8.56935 22.1986 
-3.89253 -5.24354 12.3764 -7.31763 -2.58824 -4.03491 6.38162 6.17225 9.12514 
-13.0382 -10.2941 2.49761 5.54631 5.23324 -2.60455 -8.03877 -1.31581 13.6511 
-2.70425 -11.3149 -1.62652 4.27187 -0.380597 26.0461 8.6658 23.3906 7.43596 
-6.62611 11.5824 -7.26293 6.67286 4.33631 6.99104 -8.54794 2.43978 -8.83311 
2.6261 26.285 2.68395 -6.02612 -2.29659 -5.12173 8.4197 4.27203 9.23881 
-2.50213 -8.10856 -3.31775 1.18535 23.6676 1.0661 -9.2855 -15.6051 -16.1862 
14.0042 -5.1301 -13.4887 1.81703 -22.62 -8.52641 2.51361 -1.88232 -25.0771 
11.1804 -24.8612 -14.0717 6.32941 -0.710565 -25.2289 7.58684 -21.6058 -9.74259 
15.0769 -2.89026 -22.2667 9.12487 -21.368 -13.4304 -6.7065 -20.3825 8.97539 
13.7015 -8.53593 15.3335 11.2742 -14.4938 -5.1354 16.5814 3.15877 9.70605 
4.80829 -19.9141 -4.53107 -7.52828 3.72963 10.8386 -3.49493 -14.2691 -4.46715 
-5.0955 5.52327 4.82488 6.75779 -20.0361 11.1988 2.53063 15.9392 -20.8508 
14.6653 -1.14508 -19.2127 -0.684771 10.7387 -4.28414 7.46962 1.96558 -21.0865 
5.27299 20.5396 15.1437 2.86769 2.7857 -21.5676 9.73284 13.6621 -3.3045 
-6.56665 0.902727 -16.3015 16.1922 8.65254 -16.966 7.0567 -10.1977 19.4959 
17.6497 -1.87892 -1.31328 4.06838 14.8262 7.85893 11.7641 -7.47101 -9.10838 
7.13168 -12.2943 16.0344 -2.47165 -6.75901 -8.7826 5.90626 13.5855 5.84039 
-5.29932 -0.926361 2.7423 27.034 2.48018 4.52883 9.56506 0.584308 4.32791 
-12.4312 1.21423 -0.123823 9.77747 9.60674 9.72575 6.47118 2.00822 -6.9485 
-7.15991 3.70788 2.20948 0.277734 11.0427 20.5195 -0.444855 12.2707 -0.216367 
-9.53601 -3.3739 11.0341 -10.999 0.693645 11.7263 1.64375 -8.01435 -8.6762 
-17.1323 2.74661 2.52059 -10.3417 12.505 9.72666 9.76324 -7.13242 -0.124864 
7.66146 6.4146 14.8225 4.03768 4.01615 9.94765 4.9046 -5.40034 16.8916 
4.55514 -3.65805 -7.84048 -1.8139 5.36853 4.26597 -8.69499 -5.59685 16.1994 
0.340004 5.26741 -3.87298 8.40523 -3.39083 -0.960511 -9.06409 7.01096 17.2511 
-19.4512 9.23424 13.5675 3.90057 18.8499 4.87461 -5.57888 -11.4925 12.1575 
-4.7009 -5.52663 -0.307789 -6.36173 13.1335 10.7294 -15.2977 13.9019 1.1309 
7.68034 6.85719 -8.75556 -6.82578 2.86895 15.7929 -3.51979 0.739447 12.5142 
-7.23432 -3.65027 9.23095 -8.1402 -13.3295 -3.07286 7.32405 21.1157 1.33845 
7.33831 -1.12853 2.27267 12.4838 10.3009 5.80124 8.24294 14.4598 -5.2775 
-2.0446 -3.07681 -3.51603 -1.40336 4.19452 -8.42686 8.65294 12.0938 -6.62184 
11.2775 -2.41558 10.9824 7.6425 13.3481 3.14591 -18.0122 2.29412 -8.58936 
-1.49111 7.09608 -8.39162 12.5922 4.9592 10.53 17.0225 4.10245 12.12 
-2.81269 6.60638 17.6346 -18.2599 7.32083 15.5634 -0.248313 12.5084 13.8207 
-19.776 12.0597 3.82129 3.74834 -6.40637 9.57682 -8.0618 -8.82856 13.3035 
0.135782 -12.1128 8.88905 3.73522 -4.66317 -2.26573 -12.7292 2.57111 -1.21346 
-13.6058 2.80371 9.7184 1.40279 -0.307446 12.7565 0.112955 -12.8461 1.05936 
6.38614 2.65876 16.187 -1.64075 1.4595 -2.03311 8.49882 7.12783 21.4243 
7.58451 -2.24902 3.81074 -11.6597 12.6336 10.2988 -8.70287 -4.43334 19.0762 
-2.40787 -1.46203 -0.147818 15.0252 11.5933 14.0077 11.2742 5.20597 21.1215 
-0.976798 18.6687 9.0888 -2.75345 -3.69928 12.1145 3.57279 -0.812496 3.79995 
-0.441136 13.4937 -3.51654 -17.5782 3.1925 -6.57881 11.4225 8.07727 14.968 
-5.5125 1.3404 0.157925 4.46768 -6.3984 -4.35621 0.772121 15.6726 -2.53149 
4.79023 5.13251 10.5312 11.2258 3.39117 12.9047 -4.94025 13.5636 3.35444 
-2.64872 14.3683 21.6396 0.525949 17.576 -5.82491 3.63664 6.5411 16.7524 
15.2111 -0.244002 -4.72918 -12.4634 -4.5833 2.34117 -4.2821 1.49279 -9.08533 
7.87169 7.7957 -3.03822 -6.9387 -0.0737638 12.4401 -14.6467 5.1242 4.51534 
-3.3517 4.57717 -13.4829 12.9373 8.62289 11.9736 0.822411 5.74477 15.4789 
-4.96217 22.4715 4.44057 -16.0386 5.85517 -2.18228 -4.01631 1.67626 -8.94755 
7.00943 14.4163 -5.3801 7.94164 -2.92417 2.95894 -9.64263 19.6121 -4.2112 
-1.97851 -5.21278 13.2843 6.04235 5.01512 -3.47473 -5.78197 15.4726 -3.30626 
4.06185 7.44564 -5.12466 2.32021 3.73313 -10.0439 10.7181 10.0103 11.9631 
-5.51998 15.689 7.39516 -18.0903 5.79308 1.16614 13.9546 9.02939 -6.11547 
-4.83959 16.5747 7.98688 7.7292 16.6505 -2.84549 -7.82625 9.27146 11.0147 
10.4905 14.4368 12.7552 -12.4034 13.6807 11.2819 -6.20084 -9.69507 2.76184 
-10.6465 17.0878 -4.61257 1.87301 8.35934 15.5391 5.42518 -4.97513 -2.90969 
-4.44134 -5.68923 -7.05213 6.18882 -6.802 10.7963 -9.40215 -6.3439 12.6402 
-4.21543 8.40072 22.9615 14.8586 3.80419 8.75175 9.00414 14.4161 -0.412904 
-7.35555 -1.82101 14.6443 2.56071 21.6621 18.7666 -6.0906 19.838 2.90087 
17.9072 7.50085 6.54132 -10.5685 11.631 9.42213 10.3443 16.4196 10.7954 
-2.20711 14.5465 -8.66648 -12.9364 5.06999 7.06112 9.80194 -1.52995 11.3263 
-2.09717 5.06114 -14.5681 -4.23335 12.9016 14.2956 -15.179 2.09513 3.36727 
0.471617 13.1621 14.9243 8.27841 6.48149 -11.0785 5.49774 -5.83539 -0.898845 
-7.89907 -0.902514 2.92548 9.75954 -1.61206 -8.39229 8.87868 -2.47485 8.12058 
-2.10724 9.0214 5.63486 2.5732 -11.3669 15.2451 -19.3443 2.87788 10.759 
2.90728 9.64172 -4.9491 -6.30029 -12.0548 3.03782 7.6205 7.72818 6.88466 
2.17066 -13.1421 -2.83603 -8.29904 7.30861 9.16604 -2.82372 -12.0608 -1.08374 
-1.9058 8.38025 -10.4572 -3.86314 9.39265 -7.36466 -8.42922 13.7823 6.79631 
10.8351 -0.169756 -5.78901 -0.483164 -7.71966 12.8164 -8.24521 12.4712 4.34118 
-3.74279 11.3417 22.4201 5.24389 14.1743 1.06733 0.968496 -10.331 -5.38008 
-18.0704 -8.11025 5.29234 -12.8166 8.99044 -4.59677 1.81689 -11.23 11.9218 
8.06548 9.57125 4.7164 -9.08838 -7.71955 6.4337 1.99758 14.3301 10.2504 
4.83195 -0.229279 21.3883 -4.56236 -3.99159 3.18783 9.83726 -0.437519 5.41746 
9.28984 -5.20581 20.4111 -5.3763 8.25523 -3.22356 9.23812 -7.94064 3.17612 
-2.83183 -7.4348 16.1051 -12.7692 -4.59021 1.4559 7.60183 8.86358 -2.89694 
-2.82049 -6.34094 15.4377 -1.32904 10.1406 17.3365 -7.2211 -8.08974 2.52723 
-6.317 10.6168 8.39666 -6.34534 -1.02689 -7.18917 -7.03696 1.64084 16.5773 
-19.8274 8.79024 4.50583 9.9997 12.5896 3.2634 -4.186 11.8554 -4.47681 
7.59192 -7.16305 0.675271 -8.95116 2.51544 -6.13575 -3.34643 17.0022 11.4682 
-11.5448 6.43067 -12.9681 14.5601 -4.20234 -0.968095 -0.654964 12.132 15.5327 
-4.3249 -2.10158 -6.88599 18.2428 -9.04506 4.59626 6.22606 -2.05101 -6.28711 
18.3678 1.74445 9.80537 -9.31056 6.92178 11.751 8.15223 2.5834 0.110418 
-4.9653 0.776698 10.3609 11.7861 7.79635 -2.57308 -7.52311 7.74594 1.54735 
5.03792 4.24894 16.9184 14.7049 -10.6929 -3.43772 3.3406 2.18487 11.3165 
15.2701 11.7448 18.7409 20.1241 -6.36843 2.90559 18.4176 14.3823 15.9455 
3.02213 0.00646391 10.9594 8.54593 -5.6222 -3.8301 2.0756 0.603071 12.2537 
7.80914 1.53098 0.594241 1.13485 -3.46718 16.805 10.4101 3.61926 -4.10706 
26.8063 0.472531 8.36585 -0.851902 20.7805 12.0962 8.48584 5.68228 -5.88543 
11.7036 21.103 11.1917 10.3428 -9.41482 8.23401 7.82294 -10.3195 3.55043 
2.09427 -0.393931 14.4165 -1.00105 1.20975 0.268219 17.6999 -1.57805 0.933128 
14.6853 -5.16407 4.93367 16.0332 -0.202903 4.28297 8.49924 -11.3903 5.99435 
8.19543 -10.3469 0.170476 9.71557 17.6727 4.89616 12.9418 23.4266 4.90604 
1.89094 22.0045 4.95226 10.8226 14.5169 17.7758 0.00887415 9.79684 8.68667 
8.07915 6.26302 -6.20256 13.02 3.55037 -13.6138 14.5736 -4.20914 9.91961 
15.9138 -3.18738 12.088 -2.60923 -3.81377 14.1585 7.27695 8.5248 -5.58495 
22.2323 4.81567 12.4333 24.721 6.07116 6.93087 8.46502 9.6233 16.145 
-1.87381 -1.17444 -1.68945 -1.64972 -9.26717 18.8546 -8.09924 4.34703 7.27546 
14.0398 -5.81869 9.50961 15.2807 -9.57533 9.20477 16.7088 -2.78286 1.68177 
-5.64253 2.05932 4.98185 0.664166 1.17815 13.8297 1.45431 -0.145619 -8.3532 
8.16506 -8.34298 10.0351 19.3275 -3.91945 8.78725 15.9145 1.56306 17.4521 
10.808 3.05647 -3.9308 17.88 2.61576 23.0192 17.7175 6.0951 5.48513 
2.25343 13.2877 19.1862 9.69664 -0.789763 14.1743 3.86783 -2.14839 -2.46053 
17.6447 11.7557 -3.19102 13.7147 3.29839 22.4517 14.7969 16.4457 14.9078 
-0.185652 8.93678 15.6318 -8.55183 4.11284 4.97421 14.0289 9.58381 -1.30904 
7.80782 -6.52063 15.298 19.0263 12.3991 21.5428 10.2039 5.61272 0.0145005 
21.0215 3.66282 -0.877149 7.10439 20.275 2.29206 15.6076 5.58482 17.8142 
-1.27617 7.77835 1.32965 10.5116 16.5587 14.7087 22.5911 9.03107 5.28545 
10.7852 14.7052 -2.74662 16.2847 7.74496 20.568 20.3036 -1.349 -2.05508 
-2.0897 6.51101 -0.904082 8.81669 6.07279 -10.8792 24.1493 3.59299 3.2067 
[...]
CELL_DATA 2484
SCALARS scalars double
LOOKUP_TABLE default
-2.1595547345 -5.4430091893 -6.5044055685 -1.536902603 1.9136631482 -9.2294720011 1.6526619694 3.3435625407 -3.5771987408 
0.38061007394 0.85109687899 1.2328878 3.2522123463 -9.3357342905 -1.6193696033 -1.780117551 0.80109688501 6.0069051033 
5.8926046457 -6.6661194587 2.0613888501 -2.0059667951 -1.233044578 -7.8251095783 -8.0704315385 8.6703616383 7.2223124831 
-8.7315248077 7.9128596339 9.1889651635 7.8115794759 -7.7679517639 -7.9128787398 9.4501792724 -9.9755663912 9.7398227757 
-5.0575442636 -6.9471888859 -8.3888292542 8.2137524819 -4.8478278037 5.1189774821 -1.1815786712 -1.5382478117 4.496041632 
-9.2195914686 7.0267137769 -3.4241302726 -1.7880208055 7.3478792913 5.2191707684 -3.2660480143 8.6035673692 -1.7977208409 
-0.54376419341 -4.7764157342 -6.2596889499 4.450756493 3.3364765704 0.69798764844 4.7148638188 -2.6642071471 -1.7571310812 
6.4527454163 -6.1219093197 2.3020570476 -1.9239551068 -8.9863360263 1.724979748 5.566008695 5.4769816622 -9.1025010717 
8.3917650982 4.5918224051 7.4738298087 -4.474735127 -5.4945528143 -4.5731113263 9.5711450989 -5.5872749954 -3.2094634851 
8.1154723577 -7.1155908966 2.9375338608 -5.4983963795 5.9665827552 2.7996444912 -9.0345496471 -4.1904597021 -9.5493961229 
9.6463949818 -6.5468298941 -3.6114913612 4.2109878107 7.008785716 8.8816814275 -4.8889179009 -5.9003432304 6.5981591269 
-8.3965056942 -8.6544585559 -7.021918045 8.8620820387 6.3413354032 8.1614242491 -8.7928574497 5.0518300717 -7.0885262038 
-9.801746298 -9.922607239 -9.6107663028 9.9057150776 -4.6473138755 9.817326595 2.0369458781 -2.0197659794 -6.6832842738 
9.4353209497 -4.3508890248 3.1863950155 0.58615362943 9.5290905367 7.2158744801 -4.454612728 5.4994177504 4.8673711851 
6.1155711889 -5.9294837658 -6.9949403962 -3.4682337794 4.4630393741 -6.0783214232 3.9245979013 3.2406044693 -2.7074534394 
5.1082927953 5.3670528997 -4.1218935865 0.84192078782 -7.9546767424 3.7615264568 5.2742246879 5.8989968725 4.0772429857 
5.7938310351 -3.0105670727 0.51418329331 -1.311556634 -8.7914732153 0.77065727295 -3.0066341691 -2.6733658207 -0.43792583761 
-8.298853553 9.0965017069 4.7108714642 -1.5949829238 7.6083676804 9.6546857703 6.9943652355 8.6813732739 -9.4587433539 
-7.1801574103 -9.7216173348 -9.1311140226 -1.4871431054 -4.942938563 3.5005647524 -5.0160557644 -6.3925227031 0.81953759838 
-6.0961216106 2.1075736086 8.2866672002 2.6351243146 5.5331942694 1.0951075665 -9.9362938929 0.74530880162 3.3441379127 
-0.30709073233 -9.8745872627 -5.8305563315 8.4023084433 -1.9288517262 -0.090870171806 9.8698333949 6.4675035092 -1.071200701 
-8.1148297899 4.232058774 -5.3498926299 -1.5751187195 9.9853611835 5.3636362014 -2.1601737415 -8.649183521 2.8023625897 
4.4613198469 -9.1219487116 -8.8780329549 8.9472375036 -5.4797631087 8.5169344637 4.0480033619 -4.1436580427 -1.2005115673 
-6.1176896759 -8.4778794437 1.7757974932 0.90936869255 6.7003519978 9.4882545347 -4.6840210961 -3.8672641019 4.255753919 
-2.2055278717 3.9608034915 6.7045092177 1.4882349195 -4.457738551 -8.8001865041 4.2538331252 -6.5652584189 2.2628983237 
-0.332445786 1.2335119411 -9.763449277 -6.2681011249 9.7268954584 9.4394127482 6.9062113287 7.9452149086 -9.5585670072 
8.9165355605 7.8928799502 7.193276237 -8.9345783125 8.6517593374 9.2859522722 -2.726999967 -8.6813145635 -9.6779703052 
-7.9166844993 -7.3296866576 9.7402004118 3.7017572113 2.2289977182 -6.2351142997 6.9817784161 -0.95874326549 -0.44301679379 
2.7187290871 6.4817826943 -5.0393645122 -3.1073957735 4.0389347503 5.6228347808 -4.4399451402 9.3565832852 -7.582475568 
4.4381885317 -4.3946160575 8.3716195841 6.5458235475 -4.3754334056 0.14600614529 7.8960627707 5.1851012077 -4.5863785413 
-5.8743373592 9.839076189 -6.4782949534 -3.1468207764 -6.8813274019 9.443111134 -3.0818804987 7.4704292703 2.2570670351 
4.3106136184 -6.118062519 1.9954723085 -0.31863733479 -7.1698062669 -6.6701785624 4.6145368188 3.1099122599 -9.2331009817 
-4.7617685943 1.0120595734 -6.154199977 -9.0205676649 3.6883509489 7.0578771592 6.9777084902 -8.6251081965 -3.2113438496 
4.9332911599 3.9145327847 8.4545332681 0.95232720137 -5.7271011454 -3.8861359921 -1.6163586978 -2.4532024943 -2.7806932788 
7.8532080545 -5.6391868414 -1.5191317542 3.1783850545 -0.072399426457 5.995660551 6.2737852521 -4.0183361761 -3.2524781723 
9.7864134442 4.3049420805 -4.1206767472 -5.9622821327 -3.762333588 9.8465928032 -4.5140561682 7.8196024783 -0.72257716864 
-7.3623516358 5.5675445482 -5.2039784327 0.41832251816 -1.6150721772 6.5993823387 7.7460180014 1.8955801157 -1.6234617838 
9.495355147 -8.5033575566 -7.074379066 9.0642802106 5.2205121309 3.9718180074 -1.2909759417 0.61458950812 -1.8983143486 
4.8686714446 4.8411897035 -2.5914983161 3.0312515759 -7.0056492376 -6.5319066167 5.4097290699 -6.8401013059 -5.0700892311 
-3.7970633934 -3.102125284 -8.756996563 -3.4532557056 -6.0683916096 -6.7088242187 3.4437803864 1.8105323803 -4.002862306 
-9.6563479815 -2.0017366064 9.9353197981 6.5985241175 7.9705863928 -7.6538813985 8.981301321 -9.5444813248 -4.5986538992 
8.0108614546 9.5175961043 9.8757505233 9.7666167579 -9.5010994119 -3.1559237678 -8.4140914965 -8.0836715525 8.2791026625 
9.2022977682 8.324272844 -9.7303241498 -8.3697305983 5.4121864073 5.0423638108 0.81320980018 -4.6456103124 -1.8802115899 
0.57602854274 -1.7755399861 2.5445464445 9.5807210222 -1.6916229003 -6.617529605 -8.5113330483 9.163492381 -3.4711446932 
0.60141472219 -5.291958329 -8.2639354217 8.5831231487 -0.087490108454 -3.0665108825 -3.1359526626 -3.109391032 3.5489060037 
2.0548865027 4.7312054292 7.0399817016 3.062555494 -1.8985449881 -7.7148181352 9.7083568553 2.7878982074 -7.9534696385 
4.4550116165 -5.8576037509 -3.4308977531 5.0866561908 8.2115348016 -3.5354730969 6.4683159781 6.7935086787 -2.6865824411 
3.5351056221 -3.9148534335 8.2493136448 5.0602857127 0.24678091771 -7.7048242971 3.2640359704 3.2112162895 1.1938216454 
-9.7568384101 -2.6962116606 -4.2163937002 -4.6221958168 -2.3995126402 6.1392852127 6.5787036468 -9.3504669126 -7.2568163843 
9.9524546953 -9.0049497036 -8.0360602784 6.5978480712 8.3298718864 9.1950819298 -3.38299244 3.7755166371 -3.8074404041 
-9.8198182086 -7.6560355016 4.0882804659 -6.9648370751 2.9471221796 -9.3961635697 8.4554484091 4.9954745969 4.9847665489 
8.3885072771 7.114223222 -7.1359253143 -8.7928837658 -5.0785736546 6.0926958957 8.9216430562 -5.7529065827 -2.2515906745 
-1.4878775066 4.1912651579 -7.7281338175 -2.1544418553 0.37808432213 1.3438476037 -4.7629903238 -0.0087119537743 6.1577013664 
-8.4889077109 -0.43293733388 9.4524426421 -5.4065933648 0.37041673761 1.6479163793 5.1108388491 0.79585455876 -7.6970323264 
1.1718076036 -0.77855242951 6.6217149981 -9.7917421277 9.8028816859 -9.6886125723 8.6446924686 5.1731473601 1.7322909127 
-8.1254249684 6.5353888491 -8.0719659223 4.8201280264 -7.0321957976 -4.4634060537 8.9474123431 -4.427397257 2.7433834039 
-9.3958169901 6.3291172443 7.7270281239 -6.1501689875 -4.7270764583 9.0291798483 8.9136614465 -9.9466824669 9.4360572628 
9.7079749387 7.6422637778 6.3343587993 -8.9409847214 9.7982969439 -9.9169252191 9.8860622233 -9.1492430007 -9.6129733053 
9.2589574135 6.1781711717 -1.9613651268 -7.9045572435 -6.5600936146 4.8662804083 9.9912054827 -5.0576709415 6.3359357072 
3.6914767655 1.2167195299 -6.9474855986 -9.2690932532 3.2398433178 -4.1261574578 7.3015054788 1.4061435331 0.4350146388 
-5.7330911241 4.6952976171 -1.9249738939 -5.7339131113 9.0787271337 0.39760190551 3.3967401461 -6.2368550907 6.4701643055 
5.6770685914 -5.9577514556 0.17793011331 8.8152482181 -4.0012018515 5.9865047689 -9.5715358452 -8.9889380904 -2.873647181 
-4.1099384548 9.5083719275 -0.64416866783 -0.47444871609 -8.9845541912 -0.43346141379 4.0030399653 -0.66222833694 -6.9032090541 
5.4739346101 -3.015432078 -6.4609328895 -1.0206054307 8.1877487954 -6.3002086879 -6.5330028095 -7.6371658464 9.2818041765 
-9.3627624825 2.6182201966 0.49458987242 -2.2744037024 6.6675101724 -0.77283174625 -0.57098433587 -3.6168238832 -0.41528601171 
6.9290536754 -5.3279687791 7.2218911157 -0.19803406279 -5.1501267134 6.2430546468 6.5946048764 -6.1264863463 -0.66647449012 
-0.56492212338 9.7977985719 5.4457426738 -6.5154673129 -2.0690251514 5.3794344269 0.92803761178 -9.2032399623 7.3149028588 
0.73869694796 -3.8699334237 3.2511593613 0.84390651659 3.8035941413 -9.1786654013 8.6785898522 5.2857404683 -9.1408989091 
-0.39194858892 -3.8707084831 8.3854909258 -6.1614010712 4.95573378 3.5123629072 5.7585102305 -3.5452529176 -4.776649982 
-0.86638227108 9.6922202105 1.5293877326 2.4741469407 -8.5285071889 5.1731489511 0.16104111044 -3.1353259036 -2.8817906435 
4.5292190738 -0.41280133834 2.7814920989 -4.361322881 -2.6135796756 -5.0882612341 0.8667026052 -1.5285797412 -6.4157316032 
-5.0741915489 -0.97060150338 7.3616435893 7.0213130146 -6.0668169488 -9.804783496 -9.4764701929 -9.9464409338 9.9978265739 
-8.7091202311 -3.4537905224 3.0785682021 3.4318378958 -8.4653703365 -8.7864858928 2.8480789153 8.4251066879 8.8581512745 
9.8741963261 9.4333431224 -9.6681583726 -7.5474790263 -7.0168993847 7.3045358835 -6.9503050618 -1.3977554227 -9.3016354711 
1.1528056861 2.2222422692 9.4333332869 8.5074239089 -8.803026327 -9.6070110291 9.5966967759 -5.1142977311 1.1294352891 
5.081793814 6.0028426664 4.5880961984 -0.29543826298 -2.3115340528 8.2154125315 9.8810103861 6.4152840382 -8.9447982476 
2.334036618 0.2614260297 -6.2126880003 -5.045986904 -5.1775597697 -1.9679732073 -3.8188649234 1.8203812493 2.7934713917 
-7.2345238 5.7333648292 8.8659950565 2.5960525004 -2.9640573917 3.6377036792 -0.74898017335 -5.8789010855 5.9966142539 
-0.92161778552 -1.7881180112 9.7357464421 8.8630459771 -5.3838281954 -8.9759618764 -7.1514883692 7.9176493942 5.2179876447 
-6.2629847448 -4.2835765835 -8.9090388545 1.6814967093 5.9860185708 3.4214719091 1.5204927056 2.5306799593 2.1579888494 
4.6522421703 3.5896663482 8.8189934002 -7.0161479914 5.0372570686 6.3863797583 8.7042545984 -6.833528831 -1.6139689491 
-7.8982188942 -6.9905046116 3.6628290605 -2.0102713102 -8.4629367528 -0.91598406404 0.41707299967 -6.1741733805 8.1602426279 
3.5433619092 -8.7178036732 2.5636281712 6.9961536309 -8.6767054813 -0.50652404937 2.3493240926 -8.0538076591 -4.7836085218 
2.4992068258 2.9581036842 5.5431238523 4.5085852099 4.1731470532 -7.6227156887 -1.5792515243 0.60534243377 0.81260673866 
-8.1951532393 -9.4713053658 -4.2318782558 6.1355362328 6.4966445073 -6.6399467312 -5.4600001152 7.7948673991 -4.8160135923 
-0.5888277617 -0.94286167815 0.52862034218 9.6780098446 2.7554050425 8.2032075284 -8.3104492817 8.172441837 9.1934369594 
4.9890121768 -7.6840336769 -9.9892495325 -1.1672055349 -0.8246626363 3.6775625795 -7.9899602678 9.4062394336 6.1765923402 
-8.5741954047 -9.927270773 -9.7644792351 -9.7988753999 9.885997319 3.5400243929 6.4192975253 -9.0558597205 -5.3838337624 
-9.8544029124 -9.0514563375 9.7522813166 9.2585919457 -1.1885460436 -8.6725822546 8.8687712961 7.160304653 6.0196405612 
-1.7982894155 -1.3613649236 -4.755995215 8.6660157247 2.9559452373 9.6480069256 -8.0955032534 -2.6771946433 -9.0602193895 
-6.2413966612 7.2085086844 9.3200596206 -6.5299335129 -1.7515739617 5.5306142664 -1.6227807478 -5.684713461 -9.2192670341 
6.3127874159 -6.0098269737 -8.3481507412 -1.6707269766 3.8759026898 8.1092361535 -9.3884203212 0.26497137822 8.1038027632 
-3.8586201815 -4.389537137 2.4921058958 -2.8173810407 -0.55999517439 -1.5602584739 0.16267601659 -4.388221334 -2.218633979 
-8.0108460318 -0.61593371612 -0.7287033624 -1.3419253928 1.6551838207 -7.4145121356 -2.6904200743 0.48792161658 4.3924462419 
1.6851948301 -0.26807118157 -1.9696395701 -1.9718788348 -1.3587269479 -7.9424629874 6.5874867029 1.5916484997 6.9683339822 
-9.6736373901 -4.5766897581 3.291409434 4.0039024244 -3.4439784791 4.5901719318 -1.7650738247 2.2253886401 1.7966056968 
-9.5839977406 3.4370310269 3.2161116312 5.0311661101 -9.7580035271 -8.722206131 8.8506405512 8.9446729256 8.3467336351 
7.2298521931 7.6789837523 -7.4082063596 -8.3031973598 -1.9223079299 4.9101526368 5.6025075261 1.613211002 3.2683698009 
-4.397433969 -2.5619636919 5.0998620821 9.1166155435 -4.6910990971 -6.1727412391 6.8006522989 -1.2313646259 -8.4583813341 
-0.44796312771 7.7150452675 0.11300504334 -7.9774942794 8.5735611051 4.7906089635 -6.61919001 -8.6425450538 2.2186172635 
-7.4064189349 -1.7527020279 -5.3699031181 -8.1862994232 6.9718170716 -7.7982220888 8.2046280389 5.0064049086 -3.1021260828 
1.7296822444 7.546856129 7.6229434838 -9.2553542552 -8.9519704809 8.6315563329 2.7839098297 0.79485715503 -2.1165961094 
-9.5978185355 7.5897018161 -7.0115049186 6.4286744917 -6.8775793139 -2.6750206097 -0.67516750736 3.4770305539 -3.1959849619 
1.2306005649 -5.68248494 0.25096304698 5.4508198702 -3.7142440348 2.9367788289 -0.49157282078 2.7619045123 1.5342147864 
1.6328783308 3.745996901 4.1567039153 -3.8781417252 0.51875221758 -4.1988409958 -4.4188938664 6.0768821625 5.3504466566 
3.7521104217 -1.6965761089 -5.7058346162 4.034620364 -4.4067771655 -3.1717791746 3.1575470458 9.1541520356 -2.4792139297 
7.5409581859 -8.5282811249 -2.8823984975 -6.8783590856 -1.1115154753 7.5892459095 4.0176998077 -7.1129746464 -0.49388732979 
0.10977290447 -5.3652246632 5.5981582961 -8.1088250153 6.4685508139 -3.4527708279 -7.003561744 2.1263130943 4.6084591907 
-1.6212195783 -8.4578786663 0.66992909562 -5.9727051706 -1.012349308 -2.238207994 2.9883062298 -2.0006865268 5.4114627024 
6.0413924685 2.8762929683 0.24257622044 2.1304917469 -3.8798716157 -1.1056195675 -1.2808297612 5.7817273934 -2.2507269737 
-0.76786909484 -3.3990609836 2.9490797463 -9.0851366648 2.5901053092 1.5168539866 2.4081030815 -1.5503316066 2.7723765138 
8.7312266961 2.7395369743 -8.3416724967 1.0507911643 1.0330541116 -2.1910938726 -5.3642550986 0.80129521649 -6.0040883505 
-6.2501596621 9.1105390515 -2.0485972657 -1.4897186574 -2.9031339505 5.229686437 -0.37833833174 -0.8377209087 -3.8045832361 
5.2722386807 7.2605984135 9.2612672799 -4.3118735033 -7.3980167956 5.1423693721 8.5379882325 0.87998274809 -7.3441802436 
-8.6329481985 -6.8857266218 -6.7990699303 6.6242966105 1.526444152 6.4833895572 -8.8545869007 -5.0680316181 4.8509193947 
-7.2370055479 -0.35056117918 -6.165696804 7.4624880022 -5.8935405621 -2.9445118579 7.0069500174 4.6899835216 7.3835144812 
-1.4473625486 -7.5909319987 -3.3462968843 8.7022405161 0.8154420634 2.4798762055 2.2776283326 -2.4517948305 0.22339814197 
0.49661151522 -2.842143995 2.8352358582 6.1750327936 -1.5602595436 -0.071416555803 -7.2891443977 -2.1507656497 1.9943528272 
-4.4683179045 1.3883881672 -1.7428843471 2.8372678328 -0.89015001205 0.43958000609 -7.8133525659 -0.020605824164 -0.97862855162 
1.3231528001 7.2936791649 -0.060813659725 -0.03030422245 -0.27774137159 -4.7168676664 4.5986185583 -5.1238211442 -4.1734866319 
8.7274681585 -2.9316237932 -2.7922428835 0.79575883 -4.5199222951 1.0443536239 -6.6689136238 8.76848876 -4.0737656314 
1.5167358806 2.9474976361 8.4803700944 3.0256870243 -9.8272375921 -2.2645851723 1.8943854552 6.0279543156 -1.4144541478 
5.5129421519 0.062819213445 5.6833167495 -4.779630185 -3.1783689918 5.0653225859 -5.2651308232 0.79622955664 4.0428346915 
6.0532702747 5.5376404384 -6.8268673538 -4.5771312581 0.88810780058 -6.9203928219 7.5698143658 -4.7646628064 1.8441029291 
-3.8261541206 9.8862241845 5.3276273932 -5.7341410496 4.009592893 5.1855673602 1.0570239093 8.9641263132 1.9707647387 
-9.107415024 2.1071639789 5.0024081496 -5.633357786 -9.6921544103 4.2795773952 7.6339134026 -2.8964347282 -7.8914428016 
0.53962813975 -9.8174251528 8.9941638012 9.7337827223 -5.1082020037 2.9173126591 3.3930325407 4.0947416021 1.2416004881 
7.8672705615 -4.2302725567 7.860002784 -8.0266129877 -1.2358703709 3.1553227044 -3.3546073711 -4.2944662234 -9.5824596079 
-3.9724233604 8.7964873118 5.3807504705 -9.364647293 6.7628285997 6.4401918746 0.44565281761 5.5699266869 7.350679777 
3.0166397683 -0.61831313426 -3.3609827661 -7.2334285208 -3.9372437186 4.4161518698 7.2022972367 -4.0986999658 -3.5000232232 
1.6399771973 1.3376875063 -3.6877881314 -4.1980377774 4.5609503425 -4.1969323342 -0.015185646067 1.4956116524 1.4567242618 
2.9824452122 3.2779744198 -9.1530403026 -9.9361953482 -4.594865893 8.1951024022 7.4673324022 -7.9912866478 -7.7094612063 
4.4099728713 8.4605006506 -8.0872935406 3.291735813 2.6249250412 6.1557688559 -8.028027018 6.4851057365 -3.6716433447 
-8.8843809475 0.69501961964 -3.6266350541 -0.017535371903 0.31771295125 -2.567228989 1.9933316892 0.068875062519 -0.59244263675 
3.456618342 5.2474116036 1.2315839303 -7.1974024631 9.2113839998 8.1018648345 9.3947821709 -9.9773791258 -1.0404713357 
-7.1475256624 -5.1882693747 7.1061070835 -1.7827399832 4.902504589 -1.1055367424 -4.3997656502 -5.4463673094 3.6971493571 
-0.15222243227 -6.937247907 -0.60883578794 -4.8077490902 4.8883207308 8.584503469 -1.8720519768 -4.5351799918 2.6437971541 
-0.16265982956 3.1810254601 7.0160412891 4.8358829509 2.0888529789 -6.0224228115 -2.5367194933 -0.52462465011 -7.6551629919 
1.8302665918 5.7937346326 -8.6594304605 9.0132619179 -1.9323672417 -3.0460001318 -2.8577639962 6.6812896348 2.0098338931 
7.8964969377 2.5867253573 8.314773899 -3.6242315064 -0.54435130367 9.3925868779 1.4922451379 -7.2925131606 -5.9116917791 
-4.0072276323 8.5075618478 -3.9420750496 -2.3351707695 -1.7099021777 7.7099321435 6.3407302652 4.2096131144 -7.2900727524 
6.5324570268 5.2610905849 -3.996555737 -4.4980505656 3.7333290291 -5.3190486218 -3.9932095066 -1.280553627 0.91190056101 
9.4211167375 -3.9296531199 -2.9077447012 -6.9169346167 9.6554527374 -5.8972937463 -3.6058148648 3.2573497707 -7.2973617598 
-6.5953867625 5.5145659754 7.8655177972 6.2107015034 2.9657279659 -3.7327066258 -6.9540438784 1.3256681216 2.8014579385 
6.3240046735 -0.93462477836 5.9049331013 -1.830332764 -5.2036711752 4.5424585213 -1.1232618044 2.6182713939 -3.2442953226 
-6.2542282068 -4.9328477757 -5.2454647062 5.6529305514 8.6839814403 -2.8897761407 -7.498855251 1.309888369 -2.7246031736 
-5.8204594688 6.2077901373 -9.5981469047 -1.1652980738 5.8393455696 1.2019432965 5.6032036479 7.2316797881 3.9234863877 
-7.2607405692 -7.7235350794 -9.9137421249 -6.7054361554 7.3959818774 -9.7191292271 4.2222249059 1.3780629827 -3.4279714493 
4.6377371947 -7.1897242926 9.4794102617 6.3554667075 8.5865433551 2.288047924 2.5009343657 -2.4648372899 3.5130239823 
-1.8951676684 3.648600016 -1.498972681 -1.9019934399 -1.6175018467 1.8298540407 1.3878139247 -2.0078454974 -1.0737489576 
-1.2263348369 -1.7664126376 -9.4408528839 2.8923399526 -0.1605440758 -2.922258562 5.2299262493 7.9785683495 6.2030175161 
-0.0069677447077 2.0703385685 -6.3716098803 -2.7798997764 5.3505663134 -5.2834802387 -0.020695681267 -3.4193325364 -1.5093626895 
-3.4553400775 2.9024953845 2.4444581861 1.0459356774 -4.2127931924 -4.2050979107 5.4346838802 2.4682286834 7.0420937574 
-8.6154085798 0.52737143305 -5.3838987659 2.8177103775 6.9925865701 3.9594809589 -8.3872789096 -3.808754827 0.54038667057 
-5.1157088461 7.6823887565 -5.0158531194 1.4827715261 3.1110064164 5.5615679314 3.0972775295 3.6624539419 3.6863757329 
-5.4290476593 -4.5654830838 6.6711918303 -4.7939721003 -2.2154828528 5.8810316228 3.3050286579 -3.6552565971 -1.1888798662 
3.8518089355 2.82554589 3.7809728028 5.6207972567 -7.0750817542 4.4012842638 -1.3720076219 0.74731490224 3.5270988034 
1.9775338665 -9.264274526 3.5012522537 -4.32462076 -8.8257542857 -6.0398547857 6.7734854628 9.5943546763 6.9584170181 
6.7715170791 -8.4226046359 8.3023435081 -2.8535434782 -2.7106305262 7.8507184572 2.3244132307 -1.1449578433 -9.356574183 
0.11655464719 2.157579774 1.178070105 4.5517030381 -5.2389008717 1.9311763679 -2.0891652587 -9.192150411 5.4461168747 
-6.06648455 5.8624736505 7.5172251836 -7.5367945531 -1.7791787298 -7.5336491166 8.9600587539 4.1671655785 -3.9785069428 
7.6737818405 1.8167191644 7.6098129922 -8.4468818229 2.4717837121 2.3011874899 -7.2365981224 -4.3472198511 -4.7330312432 