# vtk DataFile Version 5.1
vtk output
ASCII
DATASET POLYDATA
POINTS 1244 float
-11.2195 -1.62978 1.2658 0.812837 8.29112 -8.13137 -1.59554 -9.94785 -2.46583 
8.85226 11.657 5.27327 -6.06752 -0.961983 -3.25693 2.13564 2.98318 -1.69318 
-0.535973 0.620418 4.42315 -1.3 -3.76477 0.233139 -2.96659 -10.1955 21.5588 
-14.6553 -19.1487 3.6971 -14.8145 3.8669 -1.48793 -12.392 -16.9512 5.01034 
8.18837 15.604 5.91288 -13.3877 -15.6659 6.7058 -15.4846 3.21988 9.18101 
-15.4838 -20.2235 10.0513 -11.7261 -10.6247 -7.74018 -3.04283 16.9149 -11.0146 
-13.9425 -14.9526 -11.3531 -8.11869 1.28175 -7.67267 11.4298 15.5345 11.7059 
-20.4189 3.85947 -20.5627 11.6934 -5.67423 11.3556 -8.66121 7.05186 -8.68328 
-10.8942 27.9476 -11.1894 -17.7337 3.11938 -15.011 -17.9545 18.6063 -1.85559 
-5.30345 8.10927 12.529 -22.4236 -3.37909 9.48974 -9.55016 -14.3468 -5.02953 
-26.5796 4.11625 4.97712 -10.3446 -14.7736 12.769 -23.4564 0.98665 6.84199 
-6.64199 8.12447 -5.00801 -18.024 17.2087 16.2098 -13.0083 6.53982 21.452 
-21.3489 9.97056 -4.97171 -6.7602 -2.85562 7.63119 -21.2366 8.6842 -10.0113 
-22.9707 6.57976 22.2573 -21.5724 -0.822333 -10.7577 3.01144 0.585258 5.46957 
-17.6992 -6.01785 8.73276 -17.3206 23.2059 6.76319 18.171 -18.952 0.70172 
-0.856495 -20.0409 -0.815421 -4.88177 -12.2113 15.2605 -12.987 -10.057 -2.37387 
3.50365 -27.0652 5.39069 -14.4781 -11.2306 13.2335 -8.5269 -18.8059 -2.59206 
9.57797 -9.86854 -5.08776 16.0823 -18.7746 14.2641 13.7341 4.85141 -22.7484 
-4.14989 12.8425 -16.5863 9.34083 -0.432938 -5.76239 -9.2302 8.55895 -21.5785 
21.0961 6.24719 -24.1681 -11.0975 -0.351205 -21.4516 4.35913 -0.81491 2.85195 
5.43358 -6.6037 -19.1973 12.0374 21.1087 -15.5429 2.66119 8.74912 22.5667 
-4.04537 -5.30445 12.3831 -7.41684 -2.62862 -3.99154 6.37813 6.15757 9.20199 
-13.1278 -10.4338 2.50844 5.55148 5.25252 -2.58946 -8.15044 -1.30692 13.7429 
-2.72178 -11.6549 -1.67128 4.0805 -0.370113 25.63 8.48195 23.4003 7.38035 
-6.86474 11.4691 -7.32497 6.67733 4.39442 6.98731 -8.60442 2.42943 -8.90458 
2.62349 26.3344 2.68223 -6.11016 -2.47527 -5.37012 8.30391 4.25672 9.09788 
-2.43853 -7.96017 -3.29542 1.00297 23.6862 0.876506 -9.25121 -15.7229 -16.5311 
14.1213 -5.17353 -13.5655 1.79234 -22.7354 -8.50696 2.56937 -1.8419 -25.2624 
11.2099 -24.7651 -14.2142 6.26556 -0.68434 -25.342 7.6436 -21.7314 -9.73496 
15.1107 -2.83809 -22.4175 9.03735 -21.3166 -13.5942 -6.74342 -20.5889 8.89868 
13.7739 -8.5833 15.3389 11.3508 -14.5665 -5.19836 16.6357 3.16565 9.67274 
4.68902 -20.0141 -4.42944 -7.59983 3.55214 10.8885 -3.54322 -14.3715 -4.49139 
-5.28091 5.504 4.84634 6.68767 -19.723 10.987 2.57222 15.9817 -20.9429 
14.7881 -1.22098 -19.2644 -0.728575 10.7995 -4.3375 7.44303 2.09513 -21.3054 
5.28808 20.5555 15.1892 2.83754 2.69643 -21.5939 9.7645 13.6598 -3.2915 
-6.65095 0.896267 -16.3772 16.4118 8.77369 -17.183 7.12222 -10.4351 19.516 
17.8773 -1.94145 -1.24068 4.14174 14.8772 7.84082 11.8883 -7.4825 -9.3198 
6.9615 -12.2721 16.0195 -2.56506 -6.84255 -8.67347 5.73063 13.7264 5.84015 
-4.99605 -0.841188 2.68643 27.2279 2.50864 4.5531 9.64624 0.598318 4.31736 
-12.5558 1.11602 -0.469338 9.96288 9.73211 9.81872 6.71105 2.0635 -6.96291 
-7.10068 3.89871 2.15947 0.248367 11.1249 20.5302 -0.336868 12.3023 -0.359236 
-9.59764 -3.38681 11.0324 -11.3679 0.938544 11.9198 1.77656 -8.19856 -8.7487 
-17.1837 2.71999 2.51189 -10.3487 12.5023 9.73332 9.77979 -7.19699 -0.175408 
7.70902 6.39211 14.9199 3.98639 3.92498 9.92803 4.97404 -5.41913 16.9514 
4.57069 -3.53377 -8.15596 -1.86191 5.3619 4.24065 -8.72103 -5.67539 16.2058 
0.363475 5.2728 -3.96163 8.42573 -3.39392 -1.03695 -9.06616 7.05787 17.309 
-19.5586 9.23882 13.5859 3.87303 18.7854 4.80351 -5.62354 -11.5959 12.1818 
-4.72055 -5.50666 -0.303529 -6.30729 13.4057 10.8873 -15.2403 14.0843 1.12562 
8.10413 6.62284 -9.28607 -6.8851 2.82169 15.9136 -3.53983 0.71597 12.4546 
-7.24018 -3.69553 9.22624 -8.1125 -13.3644 -3.14804 7.4482 21.2646 1.28102 
7.38076 -1.23461 2.30186 12.5471 10.3154 5.76883 8.32651 14.4746 -5.33259 
-2.13285 -3.1473 -3.58266 -1.38395 4.18351 -8.48685 9.05594 12.4322 -7.06125 
11.3824 -2.42631 10.9609 7.52736 13.1995 3.15636 -18.2523 2.51119 -8.77547 
-1.47853 7.39215 -8.97036 12.6722 4.98847 10.5096 17.0984 4.13244 12.1834 
-2.9214 6.61052 17.6779 -18.4546 7.35189 15.5097 -0.256658 12.4011 13.9699 
-19.8345 12.0895 3.80116 3.78759 -6.48821 9.56062 -8.06592 -8.8893 13.3003 
0.0933437 -12.2821 8.85928 3.83798 -4.73026 -2.28318 -12.8613 2.69921 -1.2988 
-13.7441 2.90889 9.77617 1.42145 -0.207266 12.668 0.110564 -12.9171 1.07231 
6.37753 2.60885 16.2086 -1.60498 1.44232 -2.05573 8.53645 7.16777 21.4844 
7.63637 -2.34774 3.78524 -11.6828 12.7434 10.3573 -8.77497 -4.57616 19.2076 
-2.42401 -1.51554 -0.240761 15.1293 11.5997 14.1384 11.3565 5.20069 21.2273 
-0.998118 18.7143 9.00889 -2.67115 -3.91652 12.1539 3.56574 -0.878472 3.75137 
-0.436778 13.5507 -3.51497 -17.6306 3.15771 -6.65099 11.1197 8.04541 14.7617 
-5.37896 1.33945 0.211795 4.57777 -6.44362 -4.39148 0.780751 15.7604 -2.58627 
4.8435 5.13705 10.5337 11.4734 3.30079 12.9003 -4.99039 13.5796 3.35215 
-2.72952 14.6185 21.8527 0.523654 17.6059 -5.86264 3.64555 6.53788 16.7465 
15.2099 -0.29759 -4.78342 -12.3626 -4.74912 2.35011 -4.27846 1.42593 -9.38603 
7.40731 7.72205 -2.90991 -6.88691 -0.226095 12.5873 -14.6311 5.10014 4.5867 
-3.44888 4.54354 -13.4898 12.888 8.67611 12.0669 0.528861 5.89195 14.9401 
-4.87815 22.628 4.72838 -16.2754 5.69141 -2.14395 -4.00641 1.67216 -8.99312 
7.0224 14.4422 -5.44577 7.94443 -3.03457 2.98586 -9.63824 19.7055 -4.28267 
-1.9421 -5.20513 13.3568 6.04763 5.03698 -3.52302 -5.73118 15.2834 -3.21269 
4.02471 7.50758 -5.10097 2.33219 3.70391 -10.4247 10.7957 9.98212 12.1061 
-5.53664 15.7556 7.45221 -18.1664 5.7876 1.12952 14.0249 9.10106 -6.18291 
-4.88354 16.5929 7.94201 7.68891 16.7247 -2.86953 -7.84192 9.2417 11.1042 
10.6151 14.4427 12.8108 -12.4571 13.7439 11.2853 -6.23668 -9.87652 2.95093 
-10.7201 17.2238 -4.3612 1.72134 8.39184 15.6346 5.40561 -5.03548 -2.93876 
-4.42976 -5.74539 -7.09835 6.14128 -6.85535 10.8663 -9.41022 -6.39704 12.7094 
-4.24245 8.32185 23.0532 14.9101 3.8051 8.7675 9.09213 14.4744 -0.481167 
-7.34705 -1.84196 14.7074 2.58017 21.7727 18.8821 -6.10274 19.6255 2.89558 
18.0503 7.53742 6.5515 -10.6503 11.5797 9.44345 10.3905 16.5386 10.7946 
-2.18208 14.5893 -8.74154 -13.0007 4.98984 7.05646 9.6651 -1.58266 11.3438 
-2.02294 5.03576 -14.6209 -4.25726 13.0144 14.4285 -15.2767 2.05981 3.51155 
0.420159 13.0859 14.9766 8.32738 6.58489 -11.114 5.70261 -5.90611 -0.854893 
-8.11175 -0.860544 3.14005 9.84878 -1.57702 -8.5721 8.92957 -2.60908 8.14112 
-2.11081 9.01867 5.63458 2.54974 -11.3594 15.436 -19.2591 2.84281 10.9087 
2.72704 9.53478 -4.84735 -6.2495 -12.1622 3.07341 7.57605 7.60627 7.03063 
2.13846 -13.1991 -2.72689 -8.09329 7.26389 8.98548 -2.80215 -12.254 -0.904967 
-1.93395 8.61322 -10.6775 -3.95756 9.43402 -7.51138 -8.43114 13.7914 6.81942 
10.9375 -0.125286 -5.83509 -0.537647 -7.79393 12.8836 -8.23549 12.5043 4.30511 
-3.74697 11.4356 22.5319 5.261 14.3715 1.13623 0.972441 -10.4097 -5.46491 
-18.1562 -8.13809 5.30898 -12.8339 9.04283 -4.65834 1.87634 -11.3072 11.9746 
8.1983 9.60583 4.67589 -9.16648 -7.71706 6.46106 2.1183 14.3944 10.1152 
4.70376 0.0397257 20.7798 -4.55318 -4.28531 2.93398 10.1769 -0.589401 5.20257 
9.02843 -4.89559 20.2384 -5.32339 8.24135 -2.7757 9.42317 -8.23296 2.95153 
-2.81213 -7.42385 16.1775 -12.7048 -4.63007 1.54128 7.66841 8.92871 -2.90114 
-2.79273 -6.3571 15.5286 -1.36381 10.0373 17.3955 -7.24351 -8.1017 2.48188 
-6.3689 10.7195 8.362 -6.3715 -1.12312 -7.23268 -7.07398 1.57477 16.6252 
-19.9536 8.86293 4.49067 9.96699 12.6304 3.21592 -4.20098 11.8087 -4.55025 
7.45596 -7.16628 0.727436 -9.12133 2.54279 -6.62512 -3.38829 17.0017 11.4937 
-11.5938 6.34997 -12.8628 14.6572 -4.29838 -0.972275 -0.646746 12.1889 15.5925 
-4.39138 -2.06677 -6.91168 18.0498 -8.95189 4.47993 6.25684 -2.06217 -6.26873 
18.444 1.64747 9.98681 -9.43626 6.99846 11.7843 8.15873 2.54188 0.100687 
-5.05084 0.682205 10.4484 11.7095 7.65946 -2.76024 -7.79815 7.70553 1.59022 
4.98159 4.1938 16.9753 14.7546 -10.7673 -3.5294 3.19741 2.12176 11.5385 
15.2101 11.8089 18.8582 19.8384 -6.37499 3.17745 18.3847 14.0129 15.741 
3.08556 0.0948107 10.881 8.50622 -5.72924 -3.8043 2.08541 0.594479 12.2683 
7.8299 1.48652 0.506234 1.14672 -3.51254 16.8302 10.4401 3.64419 -4.10728 
27.0799 0.406592 8.13099 -1.41887 21.292 12.5133 8.57554 5.61337 -5.75361 
11.7856 21.536 11.416 10.3224 -9.43909 8.2906 7.78365 -10.371 3.52067 
2.24052 -0.488654 14.4914 -0.96951 1.15436 0.250654 17.7782 -1.60575 0.975705 
14.7253 -5.29441 5.03551 16.0405 -0.216766 4.39744 8.54023 -11.4222 5.9304 
8.25511 -10.3948 0.0986377 9.67474 17.655 4.83096 12.866 23.5684 4.92996 
1.90654 22.0775 4.99908 10.7852 14.7884 18.5799 -0.0158467 9.76156 8.68762 
8.06606 6.24139 -6.2246 13.0168 3.53385 -14.1219 14.3619 -4.10082 9.57703 
16.048 -3.07381 11.6746 -2.69717 -3.85542 14.2964 7.25841 8.7311 -5.66644 
22.3243 4.83196 12.5191 24.902 6.17403 7.04228 8.46599 9.69389 16.1996 
-1.85417 -1.24719 -1.95419 -1.67476 -9.43192 18.7795 -8.33262 4.35806 7.65001 
14.0926 -5.83322 9.54992 15.3632 -9.78425 9.36665 16.6476 -2.83796 1.51752 
-5.66898 2.05178 4.95745 0.623753 1.39081 14.0879 1.46393 -0.147863 -8.37037 
8.15542 -8.36129 10.05 19.416 -3.93835 8.93236 15.9272 1.50231 17.4784 
10.8095 3.09939 -3.95808 17.8787 2.6303 23.1294 17.776 6.08135 5.47283 
2.2086 13.4077 19.2863 9.67022 -0.779047 14.2076 4.01124 -2.14673 -2.63736 
17.5316 11.5676 -3.38228 13.6629 3.28374 22.6904 14.9314 16.5389 15.0006 
-0.744585 8.91073 15.6514 -8.0786 4.08625 4.84103 14.2017 9.39012 -1.36058 
7.72436 -6.32986 15.0065 19.0558 12.2048 21.1559 10.4357 5.32501 -0.13285 
21.1975 3.54019 -0.909978 7.07736 20.3519 2.27588 15.6798 5.61202 17.8498 
-1.28154 7.6837 1.18529 10.5321 16.8575 15.0834 22.3592 8.9609 5.22027 
10.7861 14.4322 -2.60696 16.3185 7.81968 20.6499 20.2823 -1.41085 -2.11298 
[...]
CELL_DATA 2484
SCALARS scalars double
LOOKUP_TABLE default
-1.9838846468 -5.3584980932 -6.5221150553 -1.531492794 1.8923408014 -9.2257698375 1.6312181366 3.3545345603 -3.5964490074 
0.31714241878 0.82125519389 1.2978751244 3.1478207257 -9.4053947603 -1.676953868 -1.8616667421 0.82720176868 6.0636611741 
6.0586180092 -6.7120489564 2.1648387445 -2.0542802661 -1.264454619 -7.7760758978 -8.0666557071 8.6644529011 7.2263494255 
-8.753842622 7.8944414338 9.177591391 7.7865903851 -7.743030541 -7.8979993137 9.4522340243 -9.9749483328 9.7369864758 
-5.009525485 -6.9781700859 -8.4012800574 8.2132675325 -4.851178507 5.0879291249 -1.2250432194 -1.5330544082 4.4413647978 
-9.2176319065 7.0170759759 -3.3711497601 -1.7552808219 7.3706968335 5.2224109992 -3.2461153953 8.5848151722 -1.8234065101 
-0.55766837434 -4.7709250098 -6.2297429922 4.3935283262 3.3206784128 0.72561046266 4.7139311415 -2.6777519327 -1.7880609206 
6.4518325847 -6.1047008398 2.2900474784 -1.9216134247 -8.988320814 1.7414802728 5.6311130421 5.5097160431 -9.1120243009 
8.3862599655 4.6111860547 7.3622376591 -4.4636914199 -5.459313138 -4.5087077189 9.5481481532 -5.6634265487 -3.2096449889 
8.1106007875 -7.1333449173 2.9439016916 -5.4924177581 5.9337168503 2.8180610562 -9.0157213487 -4.1911309052 -9.5495592995 
9.6472277362 -6.5452295316 -3.6149315246 4.2103070602 6.996954714 8.8590526064 -4.8497095032 -5.8106649865 6.5745609783 
-8.4115703569 -8.6120189185 -6.9809484982 8.7816527134 6.3081104178 8.0734482506 -8.7621758011 4.9946185444 -7.0768481272 
-9.792864115 -9.9145286114 -9.5982586248 9.902011552 -4.4532000705 9.825880124 1.9737748326 -1.9277418907 -6.6745780212 
9.41237742 -4.3596118725 3.1988498034 0.54169291364 9.5166809448 7.2234889473 -4.4826552818 5.5318236755 4.8603441069 
6.0977867773 -5.9375908091 -6.9724345268 -3.4732479158 4.4334344923 -6.0616388256 3.8940204498 3.2711787188 -2.7179134943 
5.2579077236 5.4466514163 -4.0538189547 0.87022002073 -7.9508706475 3.7236548402 5.2956037917 5.9122392314 4.088989988 
5.8367605124 -3.0176032472 0.5380592728 -1.2872666492 -8.8283274236 0.78120371981 -2.9141329751 -2.6494020888 -0.47222298152 
-8.3122230643 9.0987543633 4.6716039791 -1.5833664523 7.5840133373 9.6461648211 6.9482761216 8.6378297441 -9.4406523758 
-7.1507366949 -9.7174665748 -9.104410106 -1.5298605436 -4.9460494804 3.4817964922 -5.0109294416 -6.3620883125 0.83128249465 
-6.1310894462 2.1299582278 8.2822458851 2.6494138409 5.5090991835 1.0846931912 -9.9336118432 0.72404084854 3.3277106604 
-0.27759987333 -9.8728830999 -5.658800176 8.341296266 -1.9125396401 -0.08425146246 9.8628703907 6.4600605214 -1.1017216819 
-8.12003376 4.2803575926 -5.3569040232 -1.6026790674 9.9854862969 5.3717273516 -2.2502186919 -8.6166463938 2.8602180996 
4.488847196 -9.1291928397 -8.8728399861 8.9436378015 -5.5079602084 8.5077598132 4.0350028231 -4.1356039127 -1.2027106948 
-6.1894388264 -8.4664216505 1.8264321702 0.9334451629 6.7811804866 9.4858163333 -4.7396278198 -3.8745084122 4.2748033093 
-2.238688451 3.9741940931 6.6895663605 1.4815992051 -4.4003844903 -8.7645652546 4.2973672031 -6.5476890786 2.2310737808 
-0.32543515365 1.2032410686 -9.7587062928 -6.2689288422 9.7122805259 9.4371076093 6.8152556257 7.9204935434 -9.5618422588 
8.8770315046 7.8859843935 7.1998480643 -8.9184174642 8.6504934682 9.2707693984 -2.7087420134 -8.6884346177 -9.6801274573 
-7.9219643982 -7.219705129 9.7384302002 3.8350484769 2.1939329005 -6.2642662964 7.05184292 -1.0731897788 -0.40500970177 
2.6249813093 6.507159247 -5.0819315449 -3.2227329247 4.0567310736 5.6373311222 -4.4715646409 9.3697738629 -7.6084205055 
4.5112686812 -4.3524109102 8.3416403584 6.4335791006 -4.2979481601 0.035342964893 8.0402788736 5.1203051054 -4.5987234566 
-5.8718529238 9.8342491772 -6.4640309791 -3.1927088762 -6.7843550444 9.4962222681 -3.1112250592 7.4794758135 2.1722875593 
4.2712170976 -6.0933480755 1.9235374403 -0.42278352692 -7.1705187341 -6.6650387361 4.6563982277 3.1542636853 -9.2676608217 
-4.6151657764 1.028481131 -6.146445125 -9.0312019842 3.6624722957 7.0484301086 6.9809370397 -8.6345192008 -3.2347317877 
4.9224305107 3.9312478358 8.4231242543 0.89575973969 -5.6291760323 -3.8812970514 -1.6057339737 -2.4751636097 -2.7432982294 
7.8694134535 -5.6285601835 -1.4877838458 3.1685748153 -0.03157318195 5.9892213151 6.3041656509 -4.0382716194 -3.2024868068 
9.7994159983 4.2880036918 -4.0938239642 -5.9974298246 -3.7761342132 9.8467755307 -4.5555079158 7.7869697994 -0.89190258229 
-7.2891019064 5.3928395061 -5.2080835004 0.39396438128 -1.6230794825 6.7110282902 7.7916936946 1.9797998088 -1.5752122836 
9.4598977661 -8.5235296008 -7.1960898508 9.0392671786 5.225999501 3.9880167266 -1.2516442856 0.75716976813 -1.9150588007 
4.8600819635 4.8679193086 -2.6347659606 3.0642014912 -6.9522580771 -6.5458961581 5.4775899386 -6.7173441146 -5.078605887 
-3.8308713902 -3.3033634837 -8.7400402816 -3.4683486513 -6.080057257 -6.7216040252 3.4550434172 1.8186917381 -4.0288205365 
-9.6754671676 -1.9844961515 9.9355989707 6.5164450496 7.9348887094 -7.6388010594 8.9782641283 -9.5485371186 -4.5837319994 
7.9638753699 9.5111360271 9.8744866957 9.7619736445 -9.4939435709 -3.1473284031 -8.4143141681 -8.0856425778 8.2926327456 
9.1850658744 8.3105256717 -9.7209072004 -8.3424514672 5.4267674651 5.0605933262 0.6807289351 -4.6123892114 -1.8622897361 
0.55961724946 -1.7461229994 2.5292020779 9.5485278334 -1.7118168589 -6.6119531813 -8.5178548667 9.14636601 -3.7044276438 
0.60345338223 -5.2697793444 -8.3552063021 8.6276956279 -0.14359046555 -3.0710892164 -3.1231024094 -3.1243099245 3.5629512473 
2.0607978587 4.7196778245 7.0461542139 3.0816803786 -1.9146081516 -7.7160760134 9.6970969468 2.7933546981 -7.9444009078 
4.4230919037 -5.7435786208 -3.409419919 5.044931895 8.2242956979 -3.6091525619 6.593210583 6.7599265188 -2.71746984 
3.6074310378 -3.8530349847 8.2225157743 5.0794627304 0.17971537625 -7.703707885 3.2270608915 3.2274217969 1.1278725909 
-9.7619960815 -2.7283943098 -4.2305227096 -4.5778670885 -2.4009910535 6.1848776959 6.5736354711 -9.347275858 -7.272431812 
9.9454209271 -9.0009834765 -8.0190067361 6.5456365732 8.3122502505 9.1768745926 -3.3924828012 3.7793497311 -3.8074519269 
-9.8393316667 -7.7223166725 4.0631558927 -6.9579490459 2.8819494119 -9.4356557628 8.4789186736 5.0553046196 4.8963370754 
8.3808940357 7.1283838963 -7.1634078253 -8.7657483751 -4.9714109128 6.1554968317 8.8936901073 -5.7462138647 -2.3270470638 
-1.4259376361 4.2667698311 -7.9072594766 -2.1443132249 0.27814294717 1.3168991898 -4.8153734165 -0.0055476204574 6.1723280976 
-8.436583598 -0.45286123691 9.4586236982 -5.3896059165 0.39048098513 1.716766944 5.0045220587 0.73469608795 -7.7027748367 
1.2006812035 -0.97506825099 6.3425907332 -9.7814480171 9.8129363485 -9.7062978733 8.5978809644 5.1630226466 1.7594012926 
-8.109033669 6.5842236365 -8.1177713154 4.8728904361 -7.0389564902 -4.4474514055 8.9429010949 -4.4322616313 2.7728384463 
-9.370420635 6.3467940839 7.7928104943 -6.1740951356 -4.774795044 9.0547989788 8.8936720166 -9.9459243711 9.4289507007 
9.7026667982 7.6131610722 6.3286494582 -8.9254154816 9.7974370544 -9.9097511652 9.8822242015 -9.0986285314 -9.5973611065 
9.2572209962 6.1313632276 -1.9165327373 -7.9107121892 -6.5733520899 4.8672635465 9.9907464693 -5.0413671187 6.3553586235 
3.6967952715 1.2570223025 -7.007301777 -9.2739994238 3.1717577393 -4.0624995272 7.291175699 1.3911801663 0.44135564747 
-5.7257903488 4.6982498556 -1.9974021392 -5.7227044622 9.0813149087 0.38820778632 3.3840337241 -6.2308818874 6.468007903 
5.6886243827 -5.9418668415 0.12073625634 8.7994120128 -4.1043914076 5.9744453864 -9.5865406997 -9.0046865114 -2.9275930023 
-4.1043013841 9.5061452558 -0.69087987812 -0.48343723322 -8.9651766085 -0.38908314778 4.0110730367 -0.71051015537 -6.8882976965 
5.4842746675 -3.0332486933 -6.4631748394 -0.97652373164 8.2015354011 -6.3172430179 -6.4902693598 -7.610626288 9.2756098576 
-9.3558477165 2.6455901881 0.45659588458 -2.2804439186 6.6662013356 -0.77967580794 -0.59344355284 -3.5809845265 -0.38800890202 
6.9473364218 -5.3051836841 7.2344805623 -0.19694025805 -5.1146960345 6.258332684 6.5977577501 -6.1463112763 -0.67171079732 
-0.56855310514 9.7990580937 5.4168792473 -6.5380788216 -2.0355153883 5.3523853122 0.99639231161 -9.2204327247 7.3084933368 
0.79323975524 -3.9015374199 3.3753765502 0.97006400363 3.7269059635 -9.1612002498 8.6455645549 5.3236414866 -9.1356740249 
-0.42324125083 -3.8482721499 8.3674079221 -6.2413142401 4.9526800287 3.5090663973 5.7542516505 -3.5479068481 -4.8143828967 
-0.88393014441 9.714617713 1.519310771 2.4960498358 -8.4710152535 5.1090152716 0.15694176217 -3.1382787713 -2.8825427442 
4.5786135238 -0.39932133267 2.7625835383 -4.3881592358 -2.5636365785 -5.0710829359 0.84411056616 -1.4671145571 -6.3769833726 
-5.0412339647 -1.0275605754 7.3522681205 6.9624830393 -5.9888424126 -9.8036564606 -9.446017866 -9.9500079815 9.9961302041 
-8.7348683144 -3.6141543666 3.164740428 3.3682370985 -8.4809728376 -8.7734673687 2.7244265949 8.4296509185 8.8794173016 
9.8711472892 9.4071870116 -9.6764277527 -7.5358102679 -7.2160804863 7.2804411671 -7.0618099951 -1.3094125892 -9.3270989837 
1.1506358294 2.1956102036 9.4319820611 8.4643875906 -8.8074904338 -9.5860856937 9.5729950862 -5.1238564443 1.0848816979 
5.1018447783 6.0132694671 4.628490013 -0.30636090727 -2.3013381241 8.1864035659 9.8793411361 6.4080539061 -8.9402361252 
2.3094077332 0.22934338216 -6.1804231177 -4.9975726627 -5.1598354481 -1.9338248178 -3.6551530319 1.8602034666 2.7307448661 
-7.3888352459 5.601135809 8.8447460344 2.5572597395 -3.1008859598 3.8127806759 -0.73271174257 -5.7881824832 5.9899513764 
-0.90018414867 -1.8603676423 9.7296365037 8.8818074328 -5.426545448 -8.9911208724 -7.1486913981 7.9696323856 5.1726898257 
-6.2877212924 -4.3067557808 -8.9374131991 1.6663980545 5.9329124737 3.4443970329 1.4732573447 2.548109978 2.173133496 
4.5489106695 3.542679348 8.8949216507 -7.0782857057 5.0590766389 6.3388112339 8.7016882984 -6.8440772749 -1.5830623252 
-7.8607762182 -6.9725552953 3.6787917695 -2.0923098999 -8.4502832501 -0.87835463272 0.44495487954 -6.1954556127 8.1145479087 
3.536123632 -8.7631972614 2.8262663721 6.9938327976 -8.7106912281 -0.15432649875 2.3224359414 -8.0547158139 -4.7647496314 
2.4196142121 3.0214007544 5.3901766133 4.5441517355 4.2240856888 -7.5648302022 -1.5660746581 0.6580741994 0.75130519583 
-8.1788483679 -9.4011511502 -4.1605691373 6.1958401958 6.4406456211 -6.7198242854 -5.3560478393 7.7283052087 -4.7258834333 
-0.55924329445 -0.92804117809 0.49006313823 9.6844249119 2.8477003813 8.1748395081 -8.310269556 8.0924632545 9.1592661707 
5.0476180243 -7.6341805587 -9.9933616106 -1.1310294896 -0.83417249008 3.6218373787 -8.0434902012 9.4098013861 6.1648807765 
-8.5476542386 -9.9258593813 -9.7567654156 -9.7995108806 9.8830426918 3.5648734887 6.4559486375 -9.0551025739 -5.4572230802 
-9.8577412781 -9.0573459092 9.7541505217 9.257152423 -1.1641513382 -8.6931655439 8.922207874 7.169154938 6.092657756 
-1.9334044297 -1.3446568849 -4.7524972801 8.6808147214 2.8071779997 9.6540331531 -8.1205040501 -2.4856677507 -9.1016579396 
-6.3382551643 7.3190106088 9.322401928 -6.5221876583 -1.6948972745 5.5361602279 -1.4552651854 -5.6370500653 -9.236040119 
6.3301163343 -6.0028546119 -8.3710568873 -1.7372969448 3.8942171475 8.1323095191 -9.3888458972 0.42799905284 8.1178640916 
-3.8289140547 -4.3362421096 2.482502666 -2.8865869227 -0.50617608928 -1.5382966403 0.0064415107201 -4.2439576356 -2.3060070452 
-8.0824725265 -0.62913586842 -0.82270769472 -1.1204171557 1.4475487726 -7.4337293697 -2.6594678437 0.43152444213 4.4119066513 
1.7371367734 -0.22242270963 -1.934870866 -1.9681472023 -1.4446335177 -7.9747294148 6.6184801332 1.566043662 6.9800454247 
-9.6785802473 -4.5553617618 3.2597931068 4.0173744147 -3.4073622172 4.5252754275 -1.7655044429 2.1604623955 1.8488377876 
-9.550560781 3.4067434792 3.2161682636 5.0224391742 -9.7558360334 -8.7268117634 8.8546922622 8.9544699534 8.3251965021 
7.2466549257 7.6743839714 -7.4009552939 -8.3313671142 -1.9087170091 4.9720154919 5.5707301538 1.6199266531 3.2743481982 
-4.3211829092 -2.5787106406 5.0076743276 9.0923912805 -4.6022257081 -6.1713130644 6.8227741821 -1.2637517528 -8.4788839338 
-0.36448059267 7.7342686229 0.092783989891 -7.9732901545 8.5780821691 4.7606688796 -6.6360853101 -8.575520154 2.2340935325 
-7.4218217339 -1.7625584897 -5.3085863111 -8.1979377861 6.8891637116 -7.7155288377 8.2162392258 5.0074855863 -3.0836765197 
1.692481706 7.5605514769 7.619523052 -9.2540555745 -8.9240088275 8.594511533 2.8171715893 0.75046120448 -2.0434975286 
-9.5983936348 7.5738986901 -7.001532223 6.4224189016 -6.8878648633 -2.7503599375 -0.60301053678 3.5129590914 -3.2351293805 
1.1537311886 -5.7135087363 0.38921302094 5.4896377316 -3.7292605455 2.9583269971 -0.44467872408 2.7971535362 1.586629737 
1.6124175332 3.7822384671 4.1550950595 -3.8539087545 0.43413193126 -4.2609433984 -4.5262521125 6.1453971271 5.4013483566 
3.8099539572 -1.674135071 -5.8261543955 4.0085781075 -4.4518647141 -3.2758032459 3.2448658322 9.184546607 -2.532201719 
7.535616138 -8.5515241685 -2.8502639698 -6.8675931097 -1.1965103132 7.6575785484 4.0981983866 -7.1847386888 -0.57678598826 
0.2327159268 -5.3142341114 5.5703658993 -8.1260618468 6.5424146235 -3.2907286231 -6.8754077773 2.0801352567 4.6576502675 
-1.6129891509 -8.4949885776 0.65660512079 -6.0778547725 -1.1431468321 -2.0966677148 2.9790210468 -2.0360494677 5.3748261683 
6.0056668065 2.8767582246 0.28224696343 2.100256431 -3.9362107051 -1.1184795565 -1.4529215261 5.8386801939 -2.2983113813 
-0.82181857609 -3.5471740866 2.9567124447 -9.0803377513 2.5601202774 1.5564868733 2.4241202791 -1.5872017061 2.7117256288 
8.7467447385 2.8125466702 -8.3413260743 1.0851967251 1.0593399407 -2.1562179191 -5.3851094622 0.73358009455 -6.0823824679 
-6.3199066729 9.1324067649 -2.0704245 -1.4649337289 -2.8864468865 5.2263093076 -0.34083257254 -0.86370282794 -3.8833869058 
5.2563755524 7.2094611534 9.2239520486 -4.2201596161 -7.547642825 5.1958612774 8.5881501198 0.92345197758 -7.3937435549 
-8.6251227423 -6.8903943403 -6.8017883171 6.6329387963 1.4794701001 6.4806606737 -8.8445772768 -5.0198104753 5.0103826717 
-7.2326735372 -0.39859175603 -6.1975567483 7.50391449 -5.9789616881 -2.9203512779 7.010305835 4.6453144028 7.373093198 
-1.3985727793 -7.5792059921 -3.3823450273 8.6985401757 0.80452918456 2.5235864 2.2895271092 -2.4758215751 0.038323106078 
0.57117021124 -2.8313618988 2.8218908468 6.1454484464 -1.5447851579 -0.061767942873 -7.355589012 -2.1692731334 2.0353004884 
-4.4517059034 1.3882598722 -1.6909432224 2.7908688145 -0.92507376755 0.49869195691 -7.8366083657 -0.08147384195 -1.1188204901 
1.3505015919 7.3575995829 0.018736844415 0.036240477082 -0.20847497524 -4.7707605415 4.6653673448 -5.1509314746 -4.190123857 
8.7149554226 -2.9122550547 -2.9334238413 0.87609395256 -4.5724172175 1.0116561959 -6.684348115 8.7305498076 -4.025068754 
1.4572103326 2.8295320952 8.4508833862 2.8153213053 -9.8236249406 -2.3028281676 1.8801123687 5.9142254707 -1.398205223 
5.6154445369 0.027086028619 5.5729860411 -4.799708471 -3.2206000426 5.0833082708 -4.8168455788 0.89741931635 4.0486825746 
6.2089103929 5.4721304279 -6.979923282 -4.5646631077 0.97842194894 -6.8948430397 7.4815422707 -4.8000475876 2.0520148897 
-3.8173541615 9.8559161557 5.3570351679 -5.7366947129 4.0032464585 5.1635303622 1.0505706058 8.9638117418 1.9774659484 
-9.1169147096 2.105651938 4.9063427566 -5.6539696215 -9.6848128533 4.250841873 7.5928257168 -2.87231429 -7.8691270272 
0.58798396228 -9.8128951205 8.9811971875 9.7386922277 -5.1484003111 2.8547275421 3.5948790628 4.2463413845 1.0341089346 
7.8517648002 -4.229922763 7.8323943141 -8.1540529092 -1.1680122739 3.2190183121 -3.4468880353 -4.3086971838 -9.584282815 
-3.979732515 8.8027198996 5.2390320107 -9.354321335 6.6497052501 6.4328522353 0.42799390385 5.481859129 7.296699151 
3.1423315059 -0.63767750265 -3.3865253714 -7.1688864754 -3.974076184 4.4105387249 7.2238364237 -4.0405258142 -3.515282868 
1.6776169675 1.2641646317 -3.6818106378 -4.2008807013 4.5093803822 -4.2297234316 0.0078663057957 1.5024198653 1.2533390911 
2.9561105747 3.3161378019 -9.1557329486 -9.9368833678 -4.6231288855 8.2056395158 7.475673812 -7.9974164466 -7.6997263172 
4.4729532481 8.4549751818 -8.092271634 3.3326388927 2.5915548489 6.1809346189 -8.0328257573 6.4925132311 -3.681384856 
-8.9010571471 0.71519730106 -3.6670939731 -0.064943159716 0.36309351972 -2.5487444879 1.9876643377 0.094084317488 -0.58560134158 
3.4165878301 5.2600099743 1.2261934933 -7.208640634 9.2400264526 8.127469113 9.4388489336 -9.9773912959 -1.0241036356 
-7.1387161125 -5.2109124165 7.0838667999 -1.7688163198 4.9302270103 -1.1108830983 -4.3879897399 -5.468104086 3.6521897663 
-0.13051601568 -6.8958564522 -0.62983324593 -4.8327571639 4.8475438005 8.599267326 -1.8605772808 -4.5952302787 2.6308739381 
-0.15758880345 3.1836003179 7.0124986314 4.8626481222 2.101741058 -6.0183017324 -2.5128554641 -0.52870586477 -7.6928541529 
1.8365529108 5.6112320139 -8.5727381838 9.001594256 -1.9418552794 -3.0186177302 -2.896489734 6.7099300629 1.9653019058 
7.8532586406 2.5426933356 8.3226523337 -3.6601740155 -0.51853407412 9.3866401354 1.5720122104 -7.2452555904 -5.9037385402 
-3.9720038454 8.5385667926 -3.8770082925 -2.2824651209 -1.6508093414 7.6753647624 6.2660795068 4.1782752509 -7.272901263 
6.5096104427 5.2139844768 -4.0746523527 -4.4787159314 3.8126113778 -5.2799628107 -4.0468499951 -1.2110613513 0.84245336453 
9.39113011 -4.218530167 -2.960075668 -7.0010445797 9.6370811623 -5.8772352101 -3.6129990059 3.2190620267 -7.1583355614 
-6.4473009233 5.5225266085 7.8524968945 6.2184837363 2.958054519 -4.130866672 -7.0680596433 1.2605093242 2.8604112425 
6.290291933 -0.89004510648 5.898651694 -1.9153396504 -5.100478577 4.5523579813 -1.1133710975 2.6411557519 -3.2491917134 
-6.2792907234 -4.912619708 -5.2218582345 5.6493218295 8.703662132 -2.8581587056 -7.4623457979 1.2226274442 -2.8243071081 
-5.8815073263 6.2796135598 -9.6243028803 -1.1113084226 5.8167964467 1.1985955116 5.6973592845 7.2095209021 3.8583674584 
-7.2386999785 -7.7018022481 -9.9328877654 -6.6654587132 7.6013694233 -9.6883205232 4.4316213621 1.8993189199 -3.3506028521 
4.6979353341 -7.2314444543 9.5229527924 6.3934076504 8.6027578404 2.3284505238 2.57556905 -2.4221194992 3.5088422858 
-1.8987725907 3.676518685 -1.5184480459 -1.9804294971 -1.659458081 1.7998322599 1.4133127068 -1.9722619978 -1.1990580999 
-1.2426669948 -1.7583331914 -9.425829761 2.9968336691 -0.11963930577 -2.9429058325 5.1885858408 7.9630333771 6.1778902114 
-0.054747220132 2.0748692182 -6.3286251061 -2.758774074 5.3734126438 -5.3246066525 0.04295119995 -3.4483317671 -1.5228243043 
-3.4931494502 2.9103077455 2.4113574933 1.0105007438 -4.2162783932 -4.1949037334 5.4570634922 2.4757049385 7.00846289 
-8.6272997603 0.55425981251 -5.412196214 2.7967818221 7.0048294312 4.0000076796 -8.3840942494 -3.7714693181 0.53204018409 
-5.1050533792 7.7034761253 -5.0053020614 1.486065031 3.1183792772 5.5673666601 3.1144809794 3.6585386626 3.6637373517 
-5.4541305833 -4.6303924249 6.6828185445 -4.7966607701 -2.1820689343 6.0477633818 3.3548042236 -3.682927354 -1.0335119221 
3.8903950093 2.9691652402 3.7616490121 5.6153710792 -7.0640068539 4.3842612518 -1.3378236324 0.75790142723 3.5595757778 
2.0143854226 -9.2575587603 3.4456180472 -4.3355312132 -8.8155632709 -6.0500689624 6.7721123186 9.5840371904 6.9574709527 
6.7766026219 -8.4246068284 8.3033061879 -2.7552790344 -2.7253406586 7.8455167298 2.322459945 -1.2036118298 -9.3735517984 
0.15362223363 2.1481857493 1.2034518584 4.4989225167 -5.2391764746 1.9354541496 -2.0833593116 -9.1932266795 5.5039730583 
-6.0425119252 5.8564302097 7.4180563368 -7.5204765618 -1.7423901825 -7.5144407027 8.9524724819 4.1981704363 -3.8943294446 
7.6743734384 1.7694568952 7.6380630925 -8.4553557919 2.4757249036 2.2673908632 -7.252099782 -4.3065166485 -4.7370955857 