# vtk DataFile Version 5.1
vtk output
ASCII
DATASET POLYDATA
POINTS 1244 float
-11.2099 -1.51142 1.18768 0.636459 8.09643 -8.00538 -1.64722 -10.1395 -2.48644 
8.99285 11.8854 5.29406 -6.44336 -0.597319 -3.22242 2.07287 3.01329 -1.75037 
-0.49164 0.552199 4.46829 -1.65162 -4.32505 0.11552 -2.87476 -10.5106 21.6201 
-14.7323 -19.232 3.69191 -14.849 3.90229 -1.4476 -12.4523 -16.9968 5.0086 
8.293 15.66 5.89622 -13.4681 -15.7402 6.72387 -15.725 3.26394 9.27196 
-15.1792 -19.8508 9.8143 -11.9173 -10.7844 -8.08538 -3.13191 16.9334 -10.9747 
-14.0435 -15.0209 -11.4481 -8.07979 1.22821 -7.62938 11.4745 15.6511 11.7581 
-20.5062 3.75665 -20.4768 11.6433 -5.79897 11.4451 -8.61623 7.11527 -8.62518 
-10.9575 28.0673 -11.2435 -17.803 3.07644 -15.0607 -18.0199 18.6356 -1.89532 
-5.34246 8.10069 12.5611 -22.4004 -3.21794 9.55647 -9.63482 -14.8549 -5.38673 
-26.5209 3.839 4.98739 -10.4401 -15.0426 12.914 -23.7284 0.939316 7.00898 
-6.58712 8.09453 -5.42042 -17.9511 17.2244 16.1615 -13.1385 6.46022 21.0968 
-21.3046 9.89869 -4.89118 -6.8218 -2.89353 7.70985 -21.4826 8.69945 -10.1704 
-23.0006 6.60347 22.2669 -21.8004 -1.01404 -11.1631 3.02242 0.666684 5.44176 
-17.8828 -6.04777 8.82701 -17.1702 22.9449 6.81054 18.5616 -18.9219 0.723134 
-1.02568 -20.6925 -0.944184 -4.88667 -12.2153 15.0673 -13.0665 -10.1522 -2.41608 
3.35352 -27.0414 5.37526 -14.4462 -11.0703 13.2317 -8.92169 -19.3076 -2.8389 
9.51697 -9.84311 -4.95366 16.3956 -18.9722 14.178 13.5175 4.8563 -22.4288 
-4.32227 13.1361 -16.788 9.46385 -0.571826 -5.60501 -9.83521 8.68367 -21.8708 
21.1612 6.25845 -24.3655 -10.7538 -0.310728 -21.6138 4.32963 -0.908384 2.87581 
5.39329 -6.6578 -19.2927 12.1984 21.2304 -15.5587 2.63063 8.59119 22.6417 
-4.05705 -5.34503 12.4101 -7.52138 -2.65327 -3.96221 6.37247 6.15409 9.26225 
-13.2711 -10.3644 2.49559 5.46271 5.26879 -2.48026 -8.4537 -1.33243 13.7411 
-2.57604 -11.3629 -1.28702 4.04646 -0.604896 25.8839 8.42023 23.5474 7.37814 
-6.9302 11.4435 -7.38937 6.68202 4.45202 6.98268 -8.58709 2.33406 -8.89629 
2.57142 26.7449 2.63038 -5.83864 -2.51221 -5.14231 7.64703 4.0489 8.37932 
-2.4978 -8.32421 -3.0526 0.873711 23.5028 1.05494 -9.33417 -16.0995 -16.3156 
14.3896 -5.12769 -13.6399 1.58266 -22.6285 -8.46095 2.4205 -1.67232 -25.8479 
11.2447 -24.6792 -14.0135 6.2732 -0.55501 -25.8945 7.61051 -21.7475 -9.58555 
15.1321 -2.80128 -22.55 9.19456 -21.541 -13.7031 -6.99403 -20.7246 8.58538 
14.4494 -8.66709 15.7285 11.3044 -14.5007 -5.29259 16.6937 2.97218 9.68038 
4.77523 -20.0199 -4.38285 -7.75214 3.6684 11.0586 -3.59218 -14.4737 -4.51652 
-5.29439 5.65068 4.65155 6.73261 -19.9516 10.8524 2.62153 16.0201 -21.0372 
14.9161 -1.29582 -19.3067 -0.792987 10.8933 -4.35322 7.53939 1.86239 -21.4515 
5.30968 20.5456 15.3876 2.81546 2.73233 -21.85 9.94053 13.7862 -3.10264 
-6.9958 0.657221 -16.6146 16.1486 8.80757 -16.783 7.00327 -10.2463 19.2681 
18.1626 -1.97448 -1.39158 4.21839 14.9313 7.83092 11.9452 -7.50633 -9.38597 
6.96142 -12.2796 16.0399 -2.41475 -6.72988 -8.76465 5.95235 13.8171 5.81287 
-5.1255 -0.884515 2.8434 26.9529 2.57454 4.67774 9.674 0.622309 4.37348 
-12.6539 1.16896 -0.410469 9.72193 9.78966 9.94396 6.79288 2.04225 -6.96896 
-7.22564 3.67018 2.16819 0.084664 11.2819 20.5605 -0.369917 12.3826 -0.547668 
-9.65389 -3.39901 11.034 -11.5101 0.9512 12.1033 1.76883 -8.21197 -8.83391 
-17.2357 2.69663 2.50334 -10.359 12.4773 9.75805 9.79535 -7.24225 -0.214435 
7.75421 6.36988 15.0153 4.11419 4.01766 9.92813 5.03892 -5.4386 17.0102 
4.60581 -3.5702 -8.30665 -1.87476 5.35274 4.20079 -8.57874 -5.48454 15.8011 
0.147613 5.30136 -3.80302 8.44568 -3.39552 -1.11192 -9.06319 7.08263 17.3929 
-19.6304 9.26338 13.625 3.83522 18.9206 4.72239 -5.56131 -11.4861 12.1817 
-4.72244 -5.63014 -0.563244 -6.13174 13.1568 10.5898 -15.2196 14.1557 1.10578 
8.19725 6.60467 -9.29897 -6.79162 2.81838 16.0665 -3.53543 0.722463 12.5158 
-7.22987 -3.84429 9.34584 -8.09635 -13.416 -3.2243 7.55202 21.4055 1.21487 
7.41963 -1.33543 2.33519 12.3971 10.3874 5.66041 8.27354 14.5299 -5.31791 
-2.21339 -3.21584 -3.64938 -1.3745 4.19745 -8.52307 8.72995 12.1965 -7.34872 
11.4781 -2.4333 10.933 7.53985 13.3712 3.2495 -18.3792 2.53983 -8.90949 
-1.45399 7.37334 -9.07853 12.8388 5.00233 10.3578 17.3302 4.09689 12.1819 
-2.98787 6.6333 17.7346 -18.5088 7.36335 15.5597 -0.0728091 12.207 13.733 
-19.8885 12.1152 3.78216 3.82535 -6.56829 9.54454 -8.06942 -8.95333 13.3063 
0.189686 -12.4308 8.56911 3.9836 -4.91423 -2.38083 -12.9387 2.73891 -1.33916 
-13.7979 2.87247 9.75752 1.41407 -0.216943 12.673 0.0820439 -13.0077 1.06327 
6.77027 2.28867 16.5198 -1.97059 1.20035 -2.30579 8.74717 7.25423 21.8734 
7.55567 -2.7312 3.49854 -11.6388 12.7612 10.2496 -8.84481 -4.71689 19.3319 
-2.44397 -1.53564 -0.323079 15.2306 11.6061 14.2619 11.446 5.19233 21.3436 
-1.02405 18.7585 8.93106 -2.7137 -3.97457 12.1096 3.56055 -0.938907 3.70539 
-0.432111 13.6077 -3.51288 -17.6873 3.12495 -6.72068 11.2062 8.1029 14.9394 
-5.56044 1.20567 0.0940349 4.68194 -6.49139 -4.42806 0.903187 15.8295 -2.45346 
4.767 5.04321 10.4883 11.4467 3.2345 13.0596 -5.04004 13.5782 3.33463 
-2.70378 14.6264 21.9355 0.566171 17.5505 -5.77118 3.72386 6.59652 16.6598 
15.3 -0.291429 -4.74955 -12.5411 -4.79558 2.45519 -4.35376 1.43462 -9.50764 
7.56662 7.88113 -2.87069 -6.8194 -0.275942 12.7276 -14.4583 5.21375 4.78759 
-3.65936 4.49028 -14.0697 12.8603 8.64605 12.1373 0.540017 5.92474 14.9546 
-4.89558 22.7283 4.79865 -16.4426 5.63295 -2.2767 -3.98477 1.67647 -9.07514 
7.03766 14.4685 -5.50456 7.91336 -3.16879 3.0407 -9.478 19.7992 -4.39303 
-1.89707 -5.2065 13.418 5.87904 5.12491 -3.4779 -5.7826 15.2578 -3.24273 
4.02364 7.57346 -5.12997 2.3447 3.6812 -10.4516 10.8991 9.98446 12.206 
-5.57059 15.7876 7.54275 -18.2388 5.77891 1.09545 13.9935 9.12164 -6.01691 
-5.15825 16.9045 8.00349 7.63635 16.7237 -2.78289 -7.85566 9.21686 11.1875 
10.6667 14.4318 12.5979 -12.5073 13.8079 11.2862 -6.27675 -9.9889 2.94019 
-10.8041 17.3192 -4.38557 1.69002 8.45887 15.6283 5.71053 -5.53549 -3.16021 
-4.4848 -5.71406 -7.09625 6.47862 -7.36757 11.1706 -9.46372 -6.26665 12.6161 
-4.27071 8.24529 23.1389 14.9711 3.79977 8.79444 8.99536 14.5643 -0.475899 
-7.33724 -1.87707 14.7765 2.5781 21.866 18.9686 -6.13631 19.666 2.82212 
17.9894 7.56627 6.40367 -10.6027 11.6607 9.3863 10.4366 16.6533 10.7892 
-2.16571 14.6254 -8.82733 -13.1039 5.06832 7.11114 9.60253 -1.6067 11.5415 
-2.09983 5.09871 -14.7261 -4.28144 13.1234 14.5608 -15.4505 2.0382 3.4231 
0.39381 13.0398 15.0648 8.38735 6.68732 -11.1824 5.69859 -5.94296 -0.867875 
-8.09001 -0.917732 3.12861 9.88824 -1.6561 -8.6578 9.01424 -2.64666 8.14213 
-2.12116 8.99799 5.67472 2.59496 -11.4472 15.5299 -19.2899 2.87317 10.9716 
2.80292 9.60996 -4.87133 -6.25053 -12.1851 3.14911 7.63409 7.67553 7.15399 
2.12297 -13.228 -2.8547 -8.10223 7.30928 9.03277 -2.83505 -12.348 -0.858163 
-1.91007 8.59091 -10.7751 -3.96105 9.36461 -7.55193 -8.79981 13.8985 6.66201 
11.0371 -0.0806798 -5.88026 -0.59083 -7.87091 12.9413 -8.22437 12.5373 4.27078 
-3.94578 11.3646 22.5113 5.12472 14.5319 1.0447 0.976517 -10.4752 -5.54465 
-18.2358 -8.17374 5.31899 -12.8599 9.09663 -4.71294 1.9265 -11.3544 12.0403 
8.3224 9.63222 4.6254 -9.24087 -7.71942 6.47888 2.35964 14.5487 10.2306 
4.67772 0.00796957 20.7308 -4.69127 -4.14056 2.98022 9.7353 -0.376712 5.50105 
9.44111 -5.07006 20.7376 -5.537 8.24331 -3.24522 9.3054 -7.97774 3.23972 
-2.8081 -7.61178 16.2479 -12.7421 -4.65856 1.57912 7.70089 8.97185 -2.9162 
-2.76385 -6.3708 15.6195 -1.37856 10.0798 17.4387 -7.25384 -8.10624 2.43083 
-6.41883 10.8196 8.32822 -6.39754 -1.21817 -7.27411 -7.29596 1.49844 16.6485 
-20.0727 8.93823 4.47427 9.93887 12.67 3.16306 -4.21653 11.7618 -4.62356 
7.3512 -7.19237 0.701145 -9.12391 2.59559 -6.70404 -3.43734 17.0691 11.5083 
-11.6211 6.38104 -12.9349 14.7566 -4.394 -0.969533 -0.63805 12.2443 15.6499 
-4.45731 -2.03219 -6.93707 18.5421 -9.14889 4.46039 6.39363 -2.11155 -6.11241 
18.5966 1.5766 10.0601 -9.58008 7.04497 11.8564 8.16239 2.49946 0.0873092 
-5.1535 0.598236 10.5366 11.9062 7.7125 -3.25593 -7.91567 7.58727 1.50964 
4.72491 4.52412 16.8131 14.8024 -10.8413 -3.61709 3.34839 2.21624 11.2601 
15.0268 11.7722 18.9166 20.0655 -6.3989 3.04454 18.4403 14.1029 15.7968 
3.02221 0.195343 10.7022 8.57996 -5.72716 -4.17299 1.86086 0.601541 12.3037 
7.91726 1.28939 0.35991 1.15504 -3.55696 16.8589 10.4725 3.46835 -4.40101 
27.1063 0.212725 8.33486 -1.42846 21.3102 12.5414 8.5059 5.72195 -6.01017 
11.719 21.2949 11.4159 10.4373 -9.70336 8.40794 7.98304 -10.896 3.45222 
2.22124 -0.462738 14.4508 -1.34642 0.95279 0.477827 17.833 -1.61322 1.02189 
14.7682 -5.4226 5.13507 16.0428 -0.222098 4.50866 8.58544 -11.4509 5.86695 
8.3364 -10.3612 0.223024 9.65733 18.1124 4.96394 12.795 23.7089 4.95634 
1.91434 22.1589 5.0402 10.792 14.8018 18.6898 -0.719279 10.0795 8.72585 
8.05793 6.39539 -6.16214 13.1078 3.547 -13.6787 14.5718 -4.24588 9.7252 
16.1201 -3.10353 11.9401 -2.78317 -3.89662 14.4363 7.22668 8.71306 -5.74015 
22.4331 4.87868 12.5933 24.9882 6.19284 7.00718 8.42795 9.80122 16.4363 
-1.91565 -1.16662 -1.67655 -1.53168 -9.20272 18.6185 -8.47962 4.37731 7.47213 
14.0805 -5.86429 9.47135 15.3959 -9.83994 9.40911 16.4341 -3.00078 2.15469 
-6.11412 2.11565 4.69858 0.602986 1.22719 14.1183 1.4158 -0.263777 -8.31427 
8.04487 -8.24948 10.0504 19.0249 -3.75569 8.58578 15.94 1.44073 17.5021 
10.757 3.11471 -3.92593 17.7847 2.67571 23.1554 17.8353 6.06962 5.46159 
2.32131 13.243 19.2309 9.65247 -0.691164 14.0956 4.01031 -2.20346 -2.77668 
17.5832 11.7978 -3.43988 13.5765 3.27543 22.4406 14.7298 16.3071 14.9253 
-0.515758 8.99227 15.8559 -8.24352 4.05138 4.99712 14.2203 9.37042 -1.73309 
7.49237 -6.35023 15.2312 18.7856 12.3443 21.2043 10.2821 5.4099 -0.116185 
21.3608 3.71737 -1.09601 7.16855 20.4455 2.41479 15.6369 5.77929 17.7611 
-1.64363 8.00154 0.914967 10.5079 16.3969 14.781 22.945 9.02943 5.3231 
11.1606 15.1233 -2.68368 16.2894 7.79608 20.7713 20.1613 -1.41192 -1.93193 
-2.0882 6.55404 -0.916241 8.58643 6.12871 -11.2579 24.2221 3.58559 3.36199 
[...]
CELL_DATA 2484
SCALARS scalars double
LOOKUP_TABLE default
-1.8224611728 -5.3133595402 -6.61263978 -1.4063316509 1.9385527974 -9.2279393235 1.6861499783 3.360869294 -3.6040469935 
0.32293158487 0.78746578478 1.2899275469 3.1148377367 -9.4013154654 -1.6682382967 -1.8370561595 0.82713239092 6.0322308273 
6.0477662272 -6.6954083801 2.1260964789 -2.0486623555 -1.2048713879 -7.7897088297 -8.0913155237 8.7773341678 7.2636417507 
-8.6517146416 7.9857275288 9.1572712255 7.7125028117 -7.6651457109 -7.9164666529 9.4062342399 -9.9740815141 9.7214047065 
-4.8928704006 -7.0071522583 -8.4226324235 8.2146010419 -4.8566027722 5.0884631688 -1.2274221912 -1.5409720453 4.3894414367 
-9.2121576522 7.0076885057 -3.3210074118 -1.7187498121 7.3966001689 5.2263018041 -3.2279280497 8.6377306447 -1.85612638 
-0.52232961043 -4.7810834652 -6.215007928 4.3954742465 3.3662650009 0.65587386209 4.6827137679 -2.6232217448 -1.774736765 
6.5527194348 -6.0805668209 2.3008084207 -1.906720203 -8.9736048895 1.7895553904 5.6610157003 5.5751047245 -9.1208894254 
8.3845683141 4.6272789564 7.4135761451 -4.4893544272 -5.4424671753 -4.5572068893 9.5551281139 -5.6569335919 -3.2090775959 
8.0835038401 -7.1680451974 2.9552630221 -5.4862303897 5.8830032628 2.8520923653 -9.0037705791 -4.2711952009 -9.5389662136 
9.6209779297 -6.5165439324 -3.6046705911 4.1664234386 7.0239069473 8.8343704601 -4.7924036777 -5.8510677805 6.5499990108 
-8.4389525773 -8.548539442 -6.9872167396 8.762440246 6.2166467902 8.0822594422 -8.7332962537 4.9922724249 -7.0555061913 
-9.7910554061 -9.9185674158 -9.5976011595 9.9057410544 -4.4488543549 9.8256379989 1.9510940459 -1.8887600601 -6.6645827539 
9.372897797 -4.371996392 3.2145395696 0.55274385436 9.5165967397 7.2108183218 -4.4959735184 5.5138654915 4.8574170956 
6.0192536772 -5.9264362484 -6.970349427 -3.4703981687 4.4480601063 -5.9869643204 3.8657675419 3.2784949957 -2.6973729387 
5.288073005 5.4029335379 -4.0169086582 0.86221795062 -7.9505768443 3.7196787695 5.319051882 5.9267575941 4.059730765 
5.8436109517 -2.961529876 0.57549401182 -1.2482059236 -8.8597350882 0.73796364277 -2.889687038 -2.6578501125 -0.52053765331 
-8.3187884768 9.103228387 4.6544377778 -1.6517473877 7.5420686421 9.6396816988 6.9583714527 8.5744032971 -9.4252072219 
-7.1096851571 -9.718199692 -9.0737348992 -1.5293986207 -4.9063940792 3.5266699926 -5.030459633 -6.3882568024 0.82124865978 
-6.0851366024 2.1239453367 8.2800368091 2.5740468476 5.4042515826 1.0639550916 -9.9295834401 0.69184535026 3.4298220192 
-0.14870380048 -9.8528728713 -5.6560142257 8.341712343 -1.9025513222 -0.086639563187 9.8620980268 6.4305007949 -0.92811295898 
-8.0505578453 4.0926115002 -5.3524237172 -1.5464209644 9.9625345735 5.3682793889 -2.2366419127 -8.615439023 2.8583846771 
4.512836748 -9.1366162121 -8.8673189124 8.9399333407 -5.4771092215 8.4948214666 4.0129720231 -4.1182591329 -1.2127320577 
-6.1815369896 -8.438815371 1.8231614172 0.96609070059 6.816602339 9.4845283185 -4.773516928 -3.9485817861 4.2693136185 
-2.4061217521 4.0427800633 6.6747529363 1.474190436 -4.3422940931 -8.7301590341 4.2978932142 -6.5352327392 2.2668558336 
-0.34426537196 1.1707635606 -9.7622472311 -6.2460704095 9.7102366459 9.4365268254 6.7644824982 8.0399660982 -9.5496348733 
8.8938041336 7.8791944215 7.2064844647 -8.9143567304 8.6770694063 9.2575284512 -2.6847407367 -8.7188630526 -9.6765497513 
-8.0353232107 -7.2028807626 9.7361780928 3.9202486264 2.2227849505 -6.2755690978 7.0674415085 -1.0907447672 -0.39845316089 
2.6229110481 6.532904288 -5.0705173289 -3.2125717907 4.0644614823 5.6363145644 -4.4506800288 9.3827737471 -7.6120986542 
4.5228286573 -4.3846446645 8.3489811161 6.4209775612 -4.3104050096 0.038926942305 8.0612752539 5.1830348658 -4.6659362038 
-5.8739270353 9.8352280456 -6.4725210888 -3.1914200054 -6.7803649436 9.5000530305 -3.0351415735 7.4561393351 2.1482568125 
4.2395047544 -6.0942381317 1.9210036411 -0.42808300026 -7.1749903656 -6.6689926026 4.6377593875 3.2084864743 -9.2327495347 
-4.5801863948 1.0155228083 -6.0407632216 -9.0452775289 3.6833073378 6.9909194005 7.0083520572 -8.643386851 -3.2717134201 
4.9089129271 4.0323505343 8.436166207 0.74217601006 -5.8532056205 -3.8424254365 -1.3536709531 -2.5583333487 -2.8128452327 
7.8864642875 -5.6200881203 -1.5024624086 3.1584126336 0.00059733096958 5.9767970764 6.3348970108 -4.0728875054 -3.2464748464 
9.8227166078 4.3232229147 -4.1472192931 -6.0333792556 -3.7555370231 9.8493361839 -4.5895559431 7.7835207898 -0.66918520026 
-7.3137441239 5.3869459574 -5.2928210398 0.076700504584 -1.5341161172 6.3850876978 7.8762816924 1.8034863957 -1.593362345 
9.5458627732 -8.52072083 -7.0861713163 9.0671542337 4.9910069606 3.9336516208 -1.1812675712 0.60810303145 -1.9571831832 
4.8457408691 4.8642953363 -2.6728005568 3.0841853943 -7.0450596031 -6.5634490865 5.4257517125 -6.8812387544 -5.0726075225 
-3.8512911403 -3.2883051819 -8.7475462338 -3.4734267373 -6.0913308543 -6.7392126359 3.4556521203 1.8331778043 -4.0467863351 
-9.6717889998 -1.9828254271 9.936735442 6.5186158571 7.9229220619 -7.6282736263 8.9751835469 -9.5483685528 -4.5687154634 
7.9173472593 9.5142668461 9.8687796354 9.7574180014 -9.4967974405 -3.1414556374 -8.4153338146 -8.0795763846 8.3051294976 
9.1530561291 8.2955336387 -9.7142054332 -8.2981272272 5.4398035386 5.0663115977 0.76729387988 -4.5885012552 -1.8358399148 
0.54110181685 -1.777489427 2.5322329641 9.5760388356 -1.4883159402 -6.5564605272 -8.4438176309 9.1451795399 -3.8077578694 
0.60015282519 -5.2463806213 -8.3817759493 8.6129125859 -0.20098042365 -3.0478564592 -3.1107542603 -3.1404953778 3.582249001 
2.061426264 4.7080416243 7.0526165483 3.1010051331 -1.9299730258 -7.717705887 9.685758601 2.7945553146 -7.9347850131 
4.5172884495 -5.7923651335 -3.504364443 5.0279713855 8.1788994351 -3.5146180565 6.5358585081 6.874395512 -2.7606023499 
3.5110850243 -3.9116329167 8.2142051113 4.9224696287 0.12662926532 -7.5329253158 3.0626508238 3.3228546833 1.0269497726 
-9.8082165828 -2.9083065784 -4.1795163674 -4.5746528728 -2.4653780408 6.2063855447 6.5684839651 -9.3446889955 -7.2969995171 
9.935958454 -8.9945875088 -8.0264317801 6.5595089553 8.334078528 9.1505193709 -3.313927183 3.7398327618 -3.7445117107 
-9.8502825156 -7.6652619366 4.0784843387 -6.8972928175 2.9750696527 -9.3860264638 8.5167218877 5.0304303603 4.8850961665 
8.39658866 7.2437031376 -7.2637045957 -8.8074174756 -4.9514834135 6.1683230097 8.9261025957 -5.9977821781 -2.2843221476 
-1.4417460549 4.3438953868 -7.7484431787 -2.17324606 0.38282832225 1.4928586368 -4.6298413083 -0.070040347346 6.1750870773 
-8.4803161986 -0.25278889019 9.4534591717 -5.1972056567 0.20825206779 1.5837272799 5.0888078729 0.62982969571 -7.7552306556 
1.3190770324 -0.92138190587 6.577595788 -9.8005944912 9.8034546431 -9.6771586943 8.7106428859 5.3254204682 1.704777377 
-8.2712572174 6.6055757507 -7.9230364969 4.8833225424 -7.1254218194 -4.4638422273 8.9501115747 -4.5517600863 2.7131559821 
-9.3688163879 6.2500537241 7.5941633235 -6.0973256415 -4.7597224864 9.0359736353 8.8958824156 -9.9403965119 9.4150767528 
9.7039513489 7.5702788769 6.1667411781 -8.9014177388 9.7954788839 -9.9156167461 9.8763450127 -9.1290722714 -9.5958798499 
9.2435697508 6.0852285687 -1.8736532691 -7.9035538419 -6.5993193061 4.8649279674 9.9917107904 -5.0310309219 6.3741260353 
3.7006622692 1.298016758 -7.0632024516 -9.2784863659 3.1053999097 -4.0001502956 7.2727275713 1.383457207 0.44763168109 
-5.7584979649 4.6973613044 -2.0620963791 -5.8349559011 9.0845031509 0.38580147682 3.2873794514 -6.2336216925 6.4619460033 
5.7265387514 -5.8581154835 0.089304363324 8.8155270826 -4.0460859289 6.2607692103 -9.5046915483 -9.0384751999 -2.9709363186 
-4.0869540049 9.4919437101 -0.64492038462 -0.44020002409 -8.9689170129 -0.41201463961 3.9751171623 -0.66305966183 -6.8932799501 
5.6830893136 -3.0414663249 -6.4671971169 -0.96789932949 8.2376644079 -6.3184446097 -6.4300258857 -7.5696695849 9.2672389823 
-9.3432269835 2.6673147089 0.44637370808 -2.3334242447 6.6698032209 -0.8196998464 -0.61557544738 -3.3968429329 -0.33419342449 
6.9636005 -5.2857567617 7.247748022 -0.11952608332 -5.0766681845 6.2263155536 6.5507936538 -6.1499567757 -0.76426874754 
-0.55696840541 9.7885423133 5.4014762235 -6.5696788041 -2.0066279501 5.3468517509 0.99076305473 -9.2099317128 7.2888725264 
0.81778945491 -3.9311451052 3.3650900876 1.0156663649 3.750235115 -9.1566915278 8.6378501701 5.3441038518 -9.1316107065 
-0.60933666874 -4.0089098261 8.3584320052 -6.1877287313 5.1285761286 3.5627240371 5.8310950933 -3.5979244067 -4.8374385247 
-0.87533572848 9.7250177083 1.4935085627 2.3259554725 -8.4054333278 5.0036484434 -0.20382301975 -3.2509646988 -2.796139841 
4.6294217634 -0.60355573391 2.4488999216 -4.4146152855 -2.5068629131 -4.9823625139 0.81975044302 -1.408532444 -6.3441314267 
-5.0090724669 -1.082230214 7.3606257586 6.90384612 -6.0943580958 -9.7988133904 -9.4532643266 -9.9464884087 9.9967504848 
-8.6937924031 -3.5628400273 3.0839861704 3.2782199569 -8.4977149588 -8.7701629905 2.7501228312 8.461118411 8.8416167767 
9.8711691783 9.4133012976 -9.6733900124 -7.4888798568 -7.1747504591 7.2267297234 -7.032136942 -1.3421455602 -9.3699267955 
1.1706459579 1.9122077379 9.455813698 8.4152464309 -8.8161998115 -9.576459487 9.5633349046 -5.1222061315 1.0874729073 
5.0964877046 6.0375814556 4.6810662116 -0.31063117172 -2.3507747637 8.1965279053 9.8817986075 6.4778286208 -8.9164708511 
2.3314021602 0.24763857846 -6.2181006534 -5.010513863 -5.0885243781 -1.9568310041 -3.6454492328 1.9106812101 2.7273702711 
-7.3458294946 5.6524320463 8.8272238727 2.5371297239 -2.9989183573 3.7274026745 -0.74360074729 -5.8281445471 5.933067724 
-0.88422120054 -1.8411216691 9.7245910376 8.9105799065 -5.4716491948 -9.0127813434 -7.150965114 7.9655481048 5.1409625667 
-6.2571663384 -4.3235319998 -8.9287085631 1.6476781097 5.8729821881 3.4618426303 1.4229064277 2.5361055388 2.1969711098 
4.6184947803 3.3930979955 8.8435200294 -7.0961369791 5.0535659307 6.4070179448 8.7141727383 -6.8688361007 -1.6432280688 
-7.9093153558 -7.1301555887 3.7735570006 -1.8702093904 -8.4498473138 -1.0746916802 0.49881903658 -6.1962217496 8.1235582524 
3.5515689706 -8.744355544 2.9793103532 6.8997169308 -8.5685606228 -0.51465723842 2.2713079849 -8.0429017197 -4.7636471984 
2.4060602716 3.026109504 5.4540498868 4.4916001394 4.1469307393 -7.6056404562 -1.5449856884 0.61389046994 0.69973726544 
-8.1941032155 -9.4218275593 -4.2271011558 6.2154169268 6.4380775259 -6.711389047 -5.4054639396 7.7118675912 -4.8894273194 
-0.57614861028 -0.94515552192 0.51902353631 9.6794304424 2.8522179426 8.1951930002 -8.319174686 8.1374757209 9.1842487124 
4.9735466303 -7.658601988 -9.9913838996 -1.1485778045 -0.86087113233 3.6595176085 -8.0358246632 9.4013550858 6.1648490012 
-8.5516100788 -9.9232909886 -9.7491979898 -9.7812762308 9.8794803074 3.5387057374 6.4461831673 -9.0782796511 -5.4631587127 
-9.8520864786 -9.0610470761 9.7536655838 9.259528975 -1.2119441948 -8.7122979431 8.911002392 7.2159032611 6.0987038367 
-1.9417882763 -1.334999233 -4.7456722079 8.6687246956 2.9002066027 9.6501412341 -8.1157534517 -2.5686032776 -9.083764988 
-6.3474030054 7.2912326025 9.3003133981 -6.5526159016 -1.7514666523 5.4177544149 -1.4940514716 -5.6505566128 -9.2582117271 
6.4114104365 -6.0082973539 -8.3731935164 -1.7489094989 3.8718953475 8.1198958316 -9.4123007969 0.38468955467 8.1181874574 
-3.8128061736 -4.4240385892 2.4114883328 -2.6156493799 -0.45162120583 -1.4748071382 -0.11456310323 -4.2854119871 -2.2281209824 
-8.0221792825 -0.63410483153 -0.86027861816 -1.0733464017 1.387267253 -7.1474287772 -2.5761485117 0.31045427622 4.4619444987 
1.8490930546 -0.14944543596 -1.7889854436 -1.9259180482 -1.4174419597 -7.9632166163 6.6212493116 1.6174175189 7.0056259028 
-9.7107809773 -4.5273784166 3.3361443233 3.9634711733 -3.4714395961 4.5313289279 -1.6847539508 2.1745036504 1.8383763728 
-9.5427214007 3.747384551 3.3315091274 5.1261637471 -9.7642873096 -8.6576051283 8.8195867838 8.9454890376 8.2684515047 
7.234117651 7.6536336666 -7.3975842194 -8.3749701252 -1.8498904483 5.3193807508 5.6992442968 1.6818497721 2.9881393618 
-4.0407886954 -2.5635621824 4.9270426932 9.064177227 -4.5998214834 -6.1633874571 6.8240781589 -1.2667019195 -8.4827848377 
-0.2750096399 7.744430909 0.1280707722 -7.9794304952 8.6794122994 4.8250167059 -6.6663057672 -8.6177873795 2.2315311918 
-7.3793419921 -1.7960580024 -5.4782323725 -8.1424138327 6.7501140706 -7.7315912466 8.1585013455 5.1075505869 -2.946534891 
1.7926145222 7.6064268545 7.6156726531 -9.2765156393 -8.9509515593 8.5474717642 2.8473402028 0.55905182932 -2.0268423995 
-9.6287224369 7.5707417027 -7.0221842638 6.5050270107 -6.8028246492 -2.8077501013 -0.77809582864 3.6369777716 -3.3772605234 
1.3273236283 -5.8493351382 0.33962647539 5.8541457258 -3.7763300417 3.0305077446 -0.48345572396 2.9291598257 1.6484058669 
1.5894010712 3.7774714499 4.1960384129 -3.8646266241 0.47375573075 -4.2905062874 -4.3803320383 6.1708500289 5.4069677077 
3.8041268125 -1.4853010544 -5.8352688439 4.0743388543 -4.4510956521 -3.2158370185 3.2004510297 9.1798648647 -2.5730385406 
7.55704271 -8.5514360322 -2.8423034723 -6.894627415 -1.19266891 7.6582141615 3.8967775586 -7.0245936023 -0.50148680073 
0.0097356076816 -5.2768415254 5.4763284369 -8.0538595602 6.5599203918 -3.3267208362 -7.0189028452 2.0456967303 4.5604823223 
-1.6538244141 -8.5673168409 0.63955305864 -6.0662722198 -1.1957439524 -2.1845182161 3.0176755705 -1.9546830121 5.4357602402 
6.0766562074 2.9005754385 0.33795104829 2.2141107133 -4.0096126015 -1.1298289862 -1.4036484731 5.9416998484 -2.3796225109 
-0.81484610842 -3.5117128369 3.0050742925 -9.0124902999 2.4412192944 1.5647453618 2.4631421628 -1.5981541722 2.7003326063 
8.7608430545 2.8284933446 -8.3533078635 1.0846757306 1.084144363 -2.1179751113 -5.4080400441 0.69828954132 -6.100369531 
-6.3521540413 9.1451214418 -2.033760488 -1.5095680238 -2.9185243535 5.2492773869 -0.36956118725 -0.97016891818 -3.8613682932 
5.2188005428 7.0136424692 9.2573645022 -4.2538200077 -7.5705420904 5.1936390083 8.5247783092 0.94097525816 -7.4004115159 
-8.6140429836 -6.9280769102 -6.8277628312 6.702681648 1.1958402081 6.4818769216 -8.8966355833 -5.2068740187 4.9662008126 
-7.2849806051 -0.38348701098 -6.2397022945 7.5142290302 -6.0473767227 -2.7602292589 7.0186892646 4.6746556799 7.3411832339 
-1.6179980927 -7.5394595004 -3.4153263052 8.6852394033 0.78041969168 2.5666488937 2.3113576205 -2.4834594324 -0.049236693396 
0.60951149503 -2.80729777 2.6570246699 6.1268514754 -1.4958499949 -0.025524262005 -7.4266695396 -2.1208016963 2.000308446 
-4.5319776769 1.4900491856 -1.7405169401 2.8232492114 -0.84828159504 0.49186529619 -7.7792445587 -0.16419079303 -1.1070949392 
1.3253488327 7.4390335827 0.030118958653 0.095943384224 -0.26647692079 -4.7698354848 4.6378942882 -5.1583498526 -4.2157919019 
8.7991590267 -3.0147621363 -2.7795618319 0.80843805218 -4.6326231073 1.0995681286 -6.6934593821 8.7467733549 -3.9397801723 
1.4237743697 2.8217753205 8.4358203291 2.7818351607 -9.8322815307 -2.3025968262 1.8498126333 5.8844815064 -1.418396584 
5.6119912294 -0.0058007983003 5.544521 -4.8065154661 -3.2743503917 5.1631721847 -4.9532415141 0.65247422372 4.11829413 
6.3103682543 5.5193163041 -7.0059411681 -4.5188270851 1.0010496937 -6.8947983726 7.4642498524 -4.8296448787 1.9712146913 
-3.8837208915 9.8599133518 5.2146308002 -5.7825363552 4.0877506603 5.2545903862 0.97021731785 8.9922392086 2.0738898445 
-9.1406704279 1.933229909 5.250988722 -5.6697934991 -9.714463125 4.4489888121 7.3869864343 -2.9632785829 -7.5541215556 
0.66761750951 -9.8100174326 8.9326894652 9.7300173486 -5.1515009496 2.8616884489 3.5551861764 4.1849268818 0.96157609711 
7.859997859 -4.245010847 7.8337157188 -8.1234742995 -1.0960808567 3.2175967077 -3.4584935754 -4.2011574408 -9.5927423754 
-3.9289726129 8.7294741355 5.0254613184 -9.3282673827 6.5157025535 6.2224919194 0.43355247347 5.2138424475 7.2548408973 
3.1844904249 -0.6296411545 -3.5619014178 -7.2111236161 -4.2621232069 4.3335170261 7.3439616806 -3.9872570573 -3.4859620847 
1.932915896 1.5290860802 -3.6362704453 -4.3260682831 4.6763099054 -4.2868836651 0.14313148887 1.4314225083 1.3511423921 
2.9577822424 3.3503084457 -9.1772105819 -9.9369255398 -4.6465252603 8.2331721161 7.5168134346 -7.9881042308 -7.7382197722 
4.4159302915 8.4678108704 -8.1004862922 3.367450278 2.5902922572 6.2008808034 -8.0304540328 6.5286318051 -3.6989386202 
-8.8930142676 0.6566135794 -3.6607442871 -0.08962836335 0.37422603495 -2.5419394501 1.9749123137 0.076582276352 -0.598081212 
3.462050498 5.24903626 1.3029676642 -7.1768409778 9.2424456967 8.0859038303 9.4198445 -9.9766795961 -0.99864887865 
-7.1013071817 -5.2260724497 7.0649999896 -1.7202744437 4.9881690601 -0.98605357287 -4.3526494077 -5.4785381922 3.8158721369 
-0.10046033025 -6.7724721396 -0.60453386031 -4.8151680492 4.8105586012 8.5690487854 -1.8362602505 -4.5084633837 2.6640359887 
-0.15945747585 3.1878501849 7.0625038975 4.9298319648 2.157863268 -6.0165100042 -2.4918399991 -0.48200156997 -7.7260165498 
1.8703737163 5.5483404319 -8.5532506332 8.9698760283 -1.9468142404 -2.9903508311 -3.0075826452 6.7253404897 1.963404262 
7.8717226892 2.54616773 8.3243471527 -3.6991569739 -0.47027504246 9.4396078914 1.3562613728 -7.1782161434 -5.9095388317 
-4.031145456 8.5580523588 -4.1795423736 -2.2732551056 -1.6196805746 7.6229448181 6.2958851014 4.1127652394 -7.2617629778 
6.5055671184 5.231332018 -4.0859445669 -4.5153339344 3.8269492601 -5.2966748082 -4.0209817292 -1.213037573 0.83975696111 
9.4081023152 -4.1709393599 -2.8495593445 -6.9944570256 9.6493496438 -5.9426090043 -3.4988401626 3.4213377088 -7.2189862619 
-6.6500327532 5.4555466071 7.8432900576 6.2740790778 2.9193532182 -3.9573822893 -6.9319997489 1.1872753663 2.8058163857 
6.2885956483 -0.91913725035 5.8242512692 -1.6867225207 -5.0544698895 4.5384466527 -1.0995947917 2.6523555347 -3.2644968294 
-6.4497653905 -4.9598703229 -5.2404838551 5.7874676464 8.6448497078 -2.9396005462 -7.4935397927 1.2418806532 -2.7817725728 
-5.9863388327 6.2158087195 -9.7092102249 -1.1355917433 5.9053342209 1.0847400354 5.6964847777 7.2145736841 4.0004392382 
-7.2192199006 -7.8408855395 -9.9122697145 -6.6946912861 7.5956036677 -9.6939236219 4.4245124185 1.9818120444 -3.3617855978 
4.7141614267 -7.2359600372 9.5129623318 6.3892827177 8.5991917299 2.4438211583 2.5548738375 -2.5068845784 3.5251017897 
-1.768555698 3.6139658458 -1.5782526868 -1.9426450507 -1.5995673117 1.8631161049 1.3736616329 -2.1303881052 -1.1920577281 
-1.1473315401 -1.7672294142 -9.4323089875 2.8582734208 -0.092290590231 -2.9629619794 5.4111063567 7.9121473613 6.0972493713 
-0.12449307368 2.0647883732 -6.2735069716 -2.8807185831 5.3316082045 -5.2654266337 0.1576165129 -3.4255069019 -1.4864732264 
-3.5331894083 2.8664398902 2.5936320475 0.97000822522 -4.2497003118 -4.2324518535 5.4794737493 2.5167913374 6.9777738536 
-8.6387741996 0.58112165072 -5.4404516002 2.7659668663 7.0155584095 4.0422180358 -8.4007452216 -3.7433680972 0.54995233822 
-5.1311739189 7.7397613405 -4.9901311034 1.6988962268 3.1389851776 5.5099944438 3.0437637892 3.6453232221 3.6573722492 
-5.4337531073 -4.6377248825 6.7091995599 -4.8559506511 -2.2470376169 5.8893320473 3.3438410808 -3.6255683579 -1.1947195651 
3.8916080192 2.9903606341 3.8327959331 5.6117636531 -7.0420489249 4.2929918291 -1.2213102791 0.83740211181 3.189249152 
1.9827973902 -9.2443134923 3.4426029979 -4.3241466432 -8.8146584841 -6.0679266303 6.7460624039 9.6205389224 6.9458998452 
6.6597512059 -8.3560534109 8.304045358 -2.7068518256 -2.6918339403 8.0061190895 2.3274979764 -1.1856650469 -9.3370608863 
0.20931492729 2.069638394 1.0826220113 4.4996286265 -5.247485238 2.1645987139 -2.0911140438 -9.2125342984 5.5056582501 
-6.0531662338 5.8579636715 7.4347749947 -7.4739256825 -1.8106574085 -7.5512661808 8.8907996338 4.2114986323 -4.078633422 
7.5444388499 1.7784578133 7.6556907695 -8.4677049681 2.4633568527 2.4015034124 -7.2818441476 -4.3131032156 -4.7227040958 