# vtk DataFile Version 5.1
vtk output
ASCII
DATASET POLYDATA
POINTS 1244 float
-11.2507 -1.63743 1.25924 0.619459 8.35705 -8.3625 -1.64563 -10.3856 -2.55819 
9.52961 11.8652 5.01756 -6.20574 -1.01532 -3.57338 2.04915 3.05479 -1.79757 
-0.466433 0.59864 4.51606 -1.53556 -4.07964 0.193037 -3.22326 -10.258 21.3964 
-15.0219 -19.8177 3.64226 -15.4495 4.07777 -1.87924 -12.0801 -16.7492 4.91122 
8.13567 15.9633 5.92467 -13.4914 -15.9647 6.77109 -15.7136 3.40315 9.23575 
-15.482 -20.1972 10.0523 -12.1502 -10.772 -8.34657 -3.28259 17.5352 -11.3608 
-14.2309 -15.6324 -11.8587 -8.36255 1.45883 -7.89672 11.9413 16.1237 12.0342 
-20.8987 3.72085 -20.6804 11.7393 -5.98899 11.7286 -8.81942 6.91271 -8.82938 
-11.3318 28.2596 -11.3573 -17.7281 3.27118 -15.0707 -18.4842 18.8394 -2.01301 
-5.14009 8.10869 12.6856 -22.57 -3.28372 9.5884 -9.71689 -15.2919 -5.63901 
-26.9222 3.87981 4.99973 -10.4624 -15.2115 12.8382 -23.8637 0.953579 6.98132 
-6.42469 8.18578 -5.55904 -18.5191 17.424 16.4284 -12.9478 6.44024 21.1341 
-21.6216 9.92137 -5.01747 -6.84909 -2.89109 7.69278 -21.8756 8.77001 -10.4875 
-22.9412 6.57901 22.2831 -21.9247 -0.99612 -11.3629 3.17859 0.564667 5.46144 
-18.0287 -6.19091 8.96682 -17.4909 23.019 6.50544 18.4047 -19.2745 0.725173 
-1.0657 -20.7623 -0.977333 -5.01334 -12.2807 15.0814 -13.0727 -10.0545 -2.47036 
3.43239 -27.9954 5.35199 -14.6655 -11.3216 13.3798 -8.90585 -19.0542 -2.85479 
9.73309 -9.96246 -5.55949 16.5254 -19.1766 14.4422 13.5645 4.74829 -22.5735 
-4.68283 13.3862 -17.235 9.23003 -0.50068 -5.5494 -10.0696 8.74568 -21.7699 
21.5038 6.31515 -24.7227 -11.3075 -0.471031 -21.7576 4.27978 -0.924617 3.02329 
5.4551 -6.80455 -19.5613 12.2443 21.5304 -15.8338 2.46793 8.48799 22.3328 
-3.93079 -5.67013 12.6234 -8.26762 -2.81338 -4.30808 6.43629 6.21635 9.25339 
-14.0536 -11.1252 2.52073 5.41372 5.10943 -2.80908 -8.28768 -1.34601 13.7881 
-2.88261 -11.8244 -1.89499 3.98748 -0.45312 25.8531 8.59011 24.0183 7.56606 
-7.00878 11.4775 -7.36924 6.54374 4.43108 6.82573 -8.7654 2.39428 -9.11821 
2.56924 26.9225 2.62565 -5.99608 -2.64491 -5.38133 8.14143 4.05284 8.89902 
-2.61893 -8.49535 -3.3615 0.662022 23.8223 0.713337 -9.75355 -16.3128 -16.893 
14.5399 -5.18383 -13.7052 1.57857 -23.2407 -8.51421 2.52102 -1.81638 -25.7363 
11.4368 -24.7698 -14.5962 6.28416 -0.61089 -26.2648 7.71868 -21.5149 -9.80909 
15.2122 -2.85481 -22.755 8.99945 -21.8567 -13.7549 -7.14669 -20.9652 8.74917 
14.5239 -8.74272 15.716 11.4258 -14.6286 -5.47952 16.8809 2.96575 9.64749 
4.87721 -20.3706 -4.73678 -7.98453 3.81044 10.8789 -3.702 -14.6013 -4.3935 
-5.2851 5.78827 4.76905 6.66411 -20.3706 11.1463 2.77965 16.0392 -21.2948 
15.2287 -1.53943 -19.4065 -0.983044 11.0864 -4.18417 7.63551 1.84661 -21.7587 
5.28862 20.7952 15.4578 2.77456 2.95581 -22.2058 9.75316 13.6537 -3.06009 
-7.14643 0.637181 -16.7124 15.8473 8.49564 -17.1285 6.92399 -10.4428 19.375 
18.1921 -1.97356 -1.77099 4.27346 15.2082 8.02045 12.1033 -7.84794 -9.69476 
6.88419 -12.4769 16.2116 -2.46598 -6.8227 -8.74074 5.86011 13.8716 5.82804 
-5.11139 -1.03628 2.73934 26.7203 2.21762 4.48311 10.1766 0.627256 4.26015 
-12.3976 1.17809 0.194536 9.8451 9.76064 9.81604 6.78684 1.9552 -7.29096 
-7.46874 3.25078 2.47183 0.0616489 11.3583 20.9472 -0.341518 12.4878 -0.653598 
-9.7726 -3.46192 11.0273 -11.2813 0.685671 11.8586 1.83605 -8.29635 -8.8792 
-17.1448 2.45164 2.51386 -10.6204 12.6557 9.83422 9.88426 -7.17767 -0.188466 
7.84334 6.31782 15.1936 4.06201 3.94253 9.9458 5.10697 -5.46221 17.1333 
4.38467 -3.83993 -8.05975 -1.77994 5.47806 4.31287 -8.79217 -5.76142 15.6267 
0.21242 5.29221 -3.8636 8.35998 -3.39039 -1.3249 -9.05593 7.23483 17.5105 
-19.9198 9.44401 13.6796 3.9394 19.1664 4.36092 -5.48959 -11.8227 12.2461 
-4.75764 -5.55131 -0.421889 -6.40066 13.4394 10.7407 -15.4178 14.2689 1.19516 
8.28263 6.69711 -9.3283 -6.8493 2.74784 16.3814 -3.54386 0.710837 12.6175 
-7.11414 -3.98036 9.5055 -8.06892 -13.3183 -3.48905 7.56477 21.1233 1.09026 
7.44952 -1.43282 2.22262 12.8962 10.6498 5.79653 8.45513 14.5759 -5.33767 
-2.16547 -3.22987 -3.76457 -1.36171 4.22665 -8.5951 8.54051 12.3936 -7.3541 
11.2583 -2.46141 10.5507 7.94771 14.0055 3.23721 -18.1084 2.45028 -8.62193 
-1.39068 7.17016 -9.13927 13.1519 5.1504 10.2647 17.3697 4.17182 12.1468 
-2.96602 6.56131 17.5117 -18.7707 7.42641 15.5661 -0.0925538 12.2734 13.6236 
-19.8197 12.0702 3.87171 3.74345 -6.53413 9.34414 -8.13006 -8.633 13.2814 
0.190132 -12.5334 8.70118 4.10374 -4.90904 -2.4529 -12.9367 2.92849 -1.3972 
-14.1774 2.87905 9.75841 1.53096 -0.230982 12.7573 0.132195 -13.7886 0.881067 
6.67246 2.26699 16.2523 -2.09615 1.08271 -2.68846 9.02397 7.24507 21.8878 
7.456 -2.53793 3.59736 -12.1078 12.8431 10.019 -8.65916 -4.60292 19.2765 
-2.5199 -1.74551 -0.684396 15.1034 11.5966 14.4801 11.4347 5.33752 21.3132 
-0.97881 18.6343 8.93139 -2.73028 -4.31164 12.1727 3.75412 -1.11043 3.51169 
-0.398382 13.6903 -3.5074 -17.8004 2.95331 -6.77749 11.5188 7.83556 14.9605 
-5.50546 1.50825 0.324235 4.65746 -6.62044 -4.48451 0.856614 15.7844 -2.70461 
5.00388 5.18739 10.6298 11.0003 3.27627 13.0355 -4.90515 14.0463 3.0303 
-2.71086 14.551 22.3111 0.515006 17.3643 -5.76295 3.93636 6.63657 16.9937 
15.1811 -0.403657 -4.77279 -12.4862 -4.8701 2.34705 -4.41565 1.45786 -9.23675 
7.93356 7.84593 -3.10854 -6.81658 -0.325687 12.6945 -14.9826 5.15768 4.85719 
-3.56853 4.5044 -14.3929 13.0292 8.63229 12.0608 0.583434 5.68066 15.6187 
-5.00453 23.0868 4.74423 -16.3621 5.6653 -2.40462 -4.02407 1.44934 -9.31838 
7.10747 14.5396 -5.54097 8.1079 -3.65271 3.07799 -9.62195 20.0927 -4.75161 
-1.87131 -5.4379 13.8245 5.89216 5.17682 -3.53707 -5.91696 15.0371 -3.355 
4.05773 7.56403 -5.1795 2.26733 3.7789 -10.1148 10.5122 9.82909 11.9817 
-5.67763 15.4483 7.34458 -18.2445 5.94817 1.21121 13.8592 9.12251 -5.94134 
-5.27245 16.7361 7.8436 7.4226 16.432 -2.85795 -7.78385 9.19553 11.335 
10.8391 14.4861 12.591 -12.6114 13.9324 11.3066 -6.43218 -9.92244 2.7023 
-10.8065 17.2438 -4.45206 1.89004 8.43944 15.7587 5.6592 -5.28149 -2.91334 
-4.51246 -6.11107 -7.43123 6.47934 -7.06466 10.8479 -9.635 -6.55996 13.0469 
-4.32741 8.09827 23.3037 15.0884 3.78967 8.84621 9.16966 14.3431 -0.422677 
-7.32226 -1.95995 14.909 2.65024 21.9574 18.9788 -6.20392 19.7475 2.67849 
18.383 7.60767 6.26687 -11.3065 11.7136 9.60028 10.4562 16.7827 10.5885 
-2.08347 14.5617 -8.80505 -13.0362 5.06512 6.98125 9.86451 -1.92028 11.6431 
-2.08332 5.05935 -14.9278 -4.41791 13.383 14.7073 -15.6491 1.95986 3.45782 
0.455237 13.2152 14.9319 8.44483 6.84696 -11.3678 5.26859 -5.98965 -1.12127 
-8.10068 -1.16166 2.78862 9.78276 -1.7949 -8.30461 8.82207 -2.45956 7.84228 
-2.11552 9.11907 5.64773 2.67658 -11.4605 15.4237 -19.5396 3.00168 11.0482 
3.01907 10.0178 -5.42106 -6.37358 -12.6884 2.85139 7.96184 7.85451 7.25158 
2.02672 -13.0016 -2.84147 -8.58831 7.37926 9.29218 -2.9916 -12.9005 -1.33481 
-1.7831 8.08094 -10.5551 -4.03968 9.38056 -7.52349 -8.55482 13.4 6.62833 
11.23 0.00785496 -5.96809 -0.72893 -8.01765 12.8538 -8.19932 12.6008 4.20272 
-4.16312 11.9733 23.3635 5.38643 14.5117 1.08261 0.909349 -10.604 -5.65485 
-18.398 -8.25794 5.33323 -12.9193 9.1719 -4.84212 2.01136 -11.9225 12.3639 
8.35448 9.76734 4.59891 -9.37792 -7.73492 6.5149 2.49133 15.0679 10.404 
4.80862 0.0156876 21.2752 -4.76475 -4.05416 3.006 9.81158 -0.441056 5.41881 
9.16234 -4.94659 20.549 -5.59228 8.08225 -3.07964 9.48639 -8.19864 2.80936 
-2.78845 -7.58053 16.3967 -13.2813 -4.77125 1.38704 7.6651 9.14584 -3.1117 
-2.83005 -6.40112 15.723 -1.44314 10.2029 17.3378 -7.56804 -8.60482 2.28197 
-6.5182 11.0065 8.27106 -6.44708 -1.40387 -7.35251 -7.54813 1.35964 16.7132 
-20.3032 9.04671 4.53085 10.1222 12.8755 3.14166 -4.21262 11.7862 -4.5678 
7.78527 -7.73028 0.655703 -9.26935 2.61732 -6.94485 -3.52127 17.0032 11.5123 
-11.8554 6.45426 -13.0988 15.2542 -4.83709 -1.03418 -0.795625 12.351 15.6366 
-4.58694 -1.93592 -6.822 18.2466 -9.02565 4.34011 6.28392 -2.15889 -6.33183 
18.4276 1.61867 10.0717 -9.79324 7.12969 12.0127 8.09138 2.20138 0.265522 
-5.14727 0.652677 10.2956 11.9717 7.6697 -3.17902 -7.95023 7.6747 1.23587 
4.86046 4.58841 16.5615 15.123 -11.1523 -3.69568 3.2921 2.10893 11.3445 
14.9308 11.8575 18.7111 20.1942 -6.54842 2.99609 18.4984 14.2869 15.865 
2.93066 0.205406 10.8497 8.53423 -5.70367 -4.22923 1.87588 0.594048 12.3604 
7.7957 1.67302 0.752506 0.756673 -3.96194 17.0609 10.4552 3.50618 -4.32283 
27.3836 0.174886 8.33662 -1.47673 21.4877 12.5087 8.34301 5.69657 -6.24909 
11.7005 21.1427 11.4834 10.4077 -9.66347 8.46635 7.9112 -10.5154 3.3825 
1.91054 -0.539134 14.5667 -1.39172 0.961239 0.331938 17.9443 -1.81343 1.09986 
14.3876 -5.2948 4.83352 15.7997 -0.269881 4.57031 8.5547 -11.2994 5.77352 
8.35253 -10.2204 0.147379 9.67346 18.1786 5.14631 12.7805 23.8538 4.89577 
1.80773 22.3251 5.11912 10.8044 14.8271 18.9005 -0.648418 10.1952 8.70694 
8.02036 6.21971 -6.69091 13.011 3.47622 -14.4281 14.3607 -4.24733 9.66465 
16.2067 -3.21164 12.0117 -2.8306 -3.85245 14.4143 7.17528 8.63545 -5.98902 
22.7888 4.93797 12.6403 25.2563 5.88018 7.05244 8.57433 9.45883 16.3031 
-2.19429 -1.32153 -1.90885 -1.54658 -9.25573 18.7489 -8.624 4.43694 7.33955 
14.1388 -5.88919 9.54919 15.46 -9.94318 9.49782 16.4602 -2.7069 2.16447 
-6.44609 2.12434 4.717 0.613728 1.4259 14.3998 1.43427 -0.261823 -8.33456 
8.34882 -8.44556 10.277 19.1554 -3.95006 8.67827 16.0915 1.38761 17.7205 
10.8617 3.09751 -4.27167 18.1034 2.68995 23.0648 17.604 5.96695 5.59676 
1.99144 13.613 19.4293 9.57161 -1.18255 14.3003 3.66077 -2.21288 -3.10799 
17.5955 11.6916 -3.54337 13.6145 3.15178 22.4274 14.9227 16.7249 15.232 
-0.778904 8.92169 15.8522 -8.34427 3.91014 4.93979 14.2097 9.50584 -1.81389 
7.4302 -6.4967 15.3596 18.9992 12.4178 21.6531 10.5714 5.19727 -0.526417 
21.3603 3.72862 -1.30168 7.20656 20.4201 2.26815 15.8795 5.80554 18.3814 
-1.43306 7.90597 1.12452 10.3268 16.6971 14.9423 22.6014 8.98366 5.00868 
11.0158 15.1095 -2.86209 16.4115 7.81465 20.6914 20.4247 -1.75958 -2.00559 
-2.01676 6.57814 -1.01214 8.39252 6.18145 -11.469 24.2806 3.63246 3.50053 
[...]
CELL_DATA 2484
SCALARS scalars double
LOOKUP_TABLE default
-2.0274116584 -5.3336004361 -6.5360260763 -1.4220399679 1.9183527891 -9.2087371746 1.6124136855 3.3346916387 -3.5684993268 
0.34651594491 0.77406828767 1.106448461 3.4196536012 -9.3438573847 -1.6623559306 -1.8531045186 0.71335488068 6.0428725568 
5.9580166372 -6.4224997441 2.0166551287 -2.0191064552 -1.3712979572 -7.8137022271 -8.1226668355 8.7369912918 7.2635464499 
-8.6271142783 8.0334686307 9.177107609 7.7532463517 -7.6789465497 -7.9265958705 9.3901396869 -9.9743447275 9.721326833 
-4.8594694333 -7.0489465644 -8.4322475147 8.1936874269 -4.872224659 5.0176898796 -1.2365515785 -1.5634579648 4.3363222479 
-9.1845460947 6.9906269432 -3.1552014758 -1.7869858694 7.4065644011 5.2885322078 -3.3378795857 8.6687127255 -2.0315315949 
-0.68528452489 -4.7425862801 -6.1846768724 4.2228914994 3.152695556 0.71773328067 4.6825336741 -2.7108835739 -1.7748714081 
6.5064963284 -6.0801859725 2.2112076376 -1.8473840807 -8.9817893172 1.7753969071 5.6469542033 5.4843440111 -9.1372242562 
8.2448646276 4.3814813054 7.362677416 -4.5305669877 -5.4411551146 -4.614211907 9.5758506155 -5.4804177328 -3.2263172216 
7.9796215902 -7.1800380195 2.9782792431 -5.5100687719 6.0727316111 2.6532012475 -9.0415455857 -4.2336832535 -9.5527387734 
9.6309093618 -6.5556441002 -3.5882246712 4.1398277311 7.057736003 8.8846214032 -4.7685717128 -5.7416810636 6.5517595378 
-8.3656040133 -8.5639318995 -6.9445265251 8.8378234246 6.1813828896 8.0938204683 -8.7398189776 4.9266709814 -7.0014048286 
-9.796149767 -9.9215405139 -9.6003912144 9.9077451873 -4.4770823792 9.835013844 1.9005490146 -1.9042243277 -6.6254877704 
9.2982601067 -4.2990160242 3.1079175117 0.5815590736 9.5080268128 7.1878873934 -4.4713082905 5.5311098063 4.9504833532 
6.0245530675 -5.985412994 -6.9548824871 -3.5771639474 4.4421144658 -5.953595259 3.8959409273 3.4151133993 -2.6544076314 
5.3954877193 5.3007987234 -4.0287354458 0.85732231075 -8.0072221323 3.8139820003 5.4404329205 6.040749821 4.2183830581 
5.5453348883 -3.0249790289 0.58085394686 -1.3318081057 -8.8631963643 0.85818481962 -3.1192229229 -2.7046759922 -0.73577399204 
-8.3597843301 9.1060817017 4.719433011 -1.6463450571 7.538415502 9.6305752652 6.9100470914 8.5879352946 -9.4092947326 
-7.1219268218 -9.7051781566 -9.1284790828 -1.4437249749 -4.9283874722 3.4488200491 -5.1062064914 -6.3332281858 0.94903402827 
-6.0775471311 2.1792087194 8.2839267393 2.6758462393 5.4048111756 1.0469672922 -9.9421241256 0.61937479537 3.3695710955 
0.040289733712 -9.8899722036 -5.8619900521 8.374099506 -1.8651315248 -0.11900964472 9.8679192138 6.3995595757 -1.0210357959 
-8.0834374211 4.1675778434 -5.3505548085 -1.7021651482 9.9889633217 5.357936788 -2.2919584094 -8.6613664709 2.8572120542 
4.5617629476 -9.1643750188 -8.8650092554 8.9352512576 -5.5789900964 8.5057857323 3.9987133867 -4.0877267745 -1.1880645401 
-6.1680445777 -8.4621924788 1.891386177 1.0270353145 6.8935951386 9.4880696612 -4.8350512581 -3.8774380583 4.3361679311 
-2.1632865223 3.9838018499 6.6160322348 1.4628454519 -4.2697941807 -8.6894106862 4.3023545678 -6.4868734088 2.4505471982 
-0.49156490545 1.1528602658 -9.7949307301 -6.2424404754 9.7292767257 9.430119394 6.7444154611 7.9673279573 -9.5221615536 
8.8529942909 7.7871518184 7.1490144752 -8.8675621531 8.6421510329 9.2157833615 -2.7089697571 -8.6814737659 -9.67215459 
-7.9410148838 -7.1854425998 9.7228157302 3.7967723776 2.3369376594 -6.2928418543 7.0115661215 -0.70245541488 -0.51435446482 
2.6626750501 6.1673642494 -4.9369833577 -3.1101563079 4.06547099 5.6084881139 -4.4574244269 9.3720878541 -7.6221080248 
4.4826968931 -4.2969637776 8.3691417761 6.382338659 -4.2870629216 -0.074854036917 7.9755462545 5.2267147945 -4.7278837487 
-5.8918558264 9.8460454469 -6.3036443085 -3.2801384811 -6.9072473904 9.4197749215 -2.7340372754 7.3858638523 2.2097603311 
4.2783894887 -5.9561937119 2.0251248182 -0.17768254846 -7.1132553134 -6.6585821818 4.4767410439 3.0884712472 -9.0899157594 
-4.671438918 0.8899018177 -6.0744997291 -9.1721687718 3.6109124768 7.0609994795 7.0496813005 -8.6598412164 -3.2373446424 
4.8325839795 4.3375460675 8.4071680175 0.86346457713 -5.5019863996 -4.0177588821 -1.3499301974 -2.569517852 -2.7716012555 
7.9174683398 -5.5748979107 -1.4755290492 3.1507637512 0.17613879184 5.9762412906 6.3309639408 -4.0673511166 -3.2368925315 
9.8272136645 4.2974818354 -4.1482198852 -6.0312151342 -3.7609915315 9.8254756271 -4.6328825177 7.8234669377 -0.56142447371 
-7.3419823253 5.4891722533 -5.2328232202 0.26146329907 -1.5561241784 6.4074610877 7.8531515462 1.7276850139 -1.7186648244 
9.4916235121 -8.5166108306 -7.0805255697 8.9472689072 4.8884770088 3.9962405953 -1.2673484112 0.75112559336 -1.8723504835 
4.8388656107 4.9336299632 -2.7437545814 3.1443499374 -7.0092582413 -6.6350814372 5.4957249199 -6.8508051842 -5.2746903488 
-3.612397023 -3.3445138554 -8.8614123277 -3.4242958 -6.159611014 -6.7452758852 3.4123311515 1.8845998323 -3.9283331525 
-9.6846733359 -2.0161523945 9.9450361746 6.6808872188 7.971896416 -7.6567699041 8.9705545412 -9.5375532964 -4.5512247403 
7.8292221191 9.4972992693 9.8737967828 9.7563336529 -9.4834329095 -3.0277342685 -8.4162076035 -8.1142536106 8.3262789872 
9.1084635123 8.2863149 -9.6903221289 -8.2399635986 5.4500494081 5.0389726656 0.98651498859 -4.6151417731 -1.8525711241 
0.58694561045 -1.6727634694 2.55981326 9.5518849227 -1.6715763082 -6.5192602332 -8.506703088 9.1786871891 -3.5791257617 
0.5804336869 -5.288965948 -8.385741501 8.6764683903 -0.18176139525 -3.0216708727 -3.111709242 -3.0026783374 3.5103285361 
2.1155041318 4.6886516612 7.0331836523 3.1223798763 -1.9129716841 -7.7167066097 9.6850535284 2.7633342189 -7.89364073 
4.455058627 -5.8187143853 -3.5443880975 5.0411920525 8.2327349951 -3.5140583046 6.6306801653 6.8475855169 -2.7524171832 
3.518491136 -3.7579354162 8.244819388 4.9596897102 0.21103780555 -7.6583036469 3.1364005627 3.2719818629 1.3711513436 
-9.7455940227 -2.7797822177 -4.1954758208 -4.4523915086 -2.4063102846 6.2361257989 6.5654976362 -9.3129862214 -7.2902671016 
9.9414287854 -8.9610704431 -8.0525944513 6.5387622539 8.3393053655 9.1305784684 -3.396313682 3.7290685712 -3.7891971502 
-9.8220001769 -7.6867821381 4.2280856606 -6.9757195556 2.7163508608 -9.3948661008 8.4863483062 4.7385753052 4.8392440784 
8.422080604 7.2424760015 -7.2633590177 -8.7734417379 -4.8986965348 6.1458062495 8.8681188229 -5.9384490993 -2.4978418144 
-1.3788370176 4.4426997748 -7.9416129438 -2.13407582 0.24742459717 1.562812124 -4.7558952787 -0.030890458194 6.2083873157 
-8.434775724 -0.31748392265 9.4582648316 -5.3953740276 0.36950585266 1.5401503648 5.1090993945 0.7679252355 -7.7756086051 
1.2437536274 -0.87753130981 6.5942486168 -9.8028619322 9.8009776052 -9.690759571 8.6837936103 5.4237316188 1.7412041459 
-8.2050735383 6.5999778381 -7.9871402639 4.8084390073 -6.8748869998 -4.4150347026 8.9213395131 -4.2839001942 2.7190773544 
-9.3539528106 6.2082273949 7.6597603811 -6.0409916603 -4.7102674288 9.0495918535 8.8418764417 -9.9396338098 9.3729336851 
9.7001130432 7.5543770285 6.1933313887 -8.9155883927 9.7940398481 -9.9171300901 9.8768271752 -9.1213534273 -9.5722743035 
9.289470751 6.0410845522 -1.7294753794 -7.9277813882 -6.5664655311 5.0032029327 9.9932566321 -5.0758678919 6.3872846224 
3.5970053871 1.2151999381 -6.9255236823 -9.3056861656 3.0856052103 -4.0524795522 7.2780703774 1.6521824199 0.40722930304 
-5.9057800152 4.8770390358 -2.092792246 -5.9880646536 9.1038581402 0.32258237108 3.2456728262 -6.216199834 6.3817439682 
5.5994144872 -5.9449435855 0.079358984734 8.8872046745 -3.7619004626 6.3739361942 -9.5168128134 -9.1735480697 -2.8248275542 
-3.9376653562 9.4667537408 -0.64578793482 -0.35274175236 -8.9849108795 -0.50699282424 3.9867622528 -0.66789755007 -6.9861061637 
5.8635094738 -2.9333146808 -6.4732834323 -0.91237329687 8.2979380652 -6.3760322328 -6.4999846738 -7.5478401802 9.256227391 
-9.3540390043 2.4285253559 0.43545844348 -2.2983117723 6.6333935196 -0.87350662291 -0.59081558512 -3.6155304497 -0.30904343371 
6.9193602514 -5.2479147758 7.2191534439 -0.1622102465 -5.1791520291 6.3737517938 6.7402624366 -6.1840124287 -0.7837156593 
-0.50388857636 9.7547093796 5.3255926662 -6.5597644059 -1.9722576843 5.2799941923 1.0309694893 -9.2160945154 7.3134366125 
0.81070395198 -3.9800691688 3.4145259853 0.96930693664 3.7481041498 -9.1481523204 8.6336711116 5.3434969688 -9.1238414349 
-0.73878015887 -3.8591106475 8.3559190621 -6.1099900122 5.0228716374 3.6265091501 5.8899456406 -3.6533604844 -4.9524716019 
-0.81773768876 9.7298295002 1.4992370529 2.3705571523 -8.4341894502 5.0266264026 -0.03396871899 -3.2279197048 -2.8032814643 
4.7016140231 -0.51557220598 2.3855726458 -4.34646909 -2.4708668619 -4.9383641553 0.7518928733 -1.3904275444 -6.2613402521 
-4.9423042078 -1.0961594459 7.3077397698 6.8582210738 -5.9970691759 -9.8017787528 -9.4458892178 -9.9460307214 9.9959657483 
-8.6377195588 -3.483738226 3.1489289644 3.3700391262 -8.4794023026 -8.7651320991 2.8102020298 8.4401168119 8.8355666375 
9.8652733412 9.4025060844 -9.6525779152 -7.4926272855 -7.2204283325 7.26572273 -7.0767018244 -1.2997471287 -9.2367842746 
1.2472939471 1.8543315698 9.4630812902 8.4080821103 -8.8123737408 -9.5873725401 9.5884748003 -5.045533774 1.0881271598 
4.9900974597 5.9997138502 4.8059026031 -0.15340789688 -2.3174342792 8.2284456526 9.8772527236 6.4917769233 -8.9309333413 
2.2931754426 0.33156587382 -6.20016938 -5.0168878399 -5.0665443834 -2.111125798 -3.6763335776 1.8215468289 2.6780841354 
-7.3718974461 5.591151027 8.7457852272 2.4904503501 -3.0661188607 3.7597940779 -0.69575730609 -5.7826036428 5.9950206075 
-0.85253383716 -1.8002998226 9.7272604926 8.875139778 -5.4344975 -8.9367054578 -7.1935678935 7.9535914127 5.0963644577 
-6.2018409386 -4.1156286611 -8.8241261445 1.8191034734 5.9295465819 3.481715606 1.6376074821 2.5290931487 2.1779113672 
4.6214858101 3.6813072646 8.9069377797 -7.1025388795 5.1029058724 6.3550305537 8.6791979385 -6.8830688344 -1.4479295973 
-7.9072146667 -7.0931399324 3.6958729808 -1.8733735926 -8.49457363 -1.0029054462 0.50165551825 -6.2340380696 8.1517767469 
3.6057791658 -8.7439121546 2.4146982862 6.8625370432 -8.571031455 -0.86529934787 2.2302147744 -7.9795525363 -4.8315102082 
2.4542060894 2.969164519 5.4790659541 4.626852804 4.1340443839 -7.6665441268 -1.731942702 0.79300215696 0.75814089782 
-8.2455906174 -9.4344006604 -4.2706410905 6.2420635213 6.5840990133 -6.475897 -5.3921233079 7.6801210818 -4.7666324005 
-0.5106106329 -0.94239281614 0.47717736479 9.7001134569 2.816829161 8.1903166879 -8.3026576069 8.2508458544 9.1932488927 
5.0196724441 -7.7385475813 -9.9892325906 -1.2350026901 -0.91946468835 3.7555499894 -8.0112960548 9.3818308926 6.1711716694 
-8.566411378 -9.9206259552 -9.7441993268 -9.8117292247 9.8804176063 3.5717119631 6.4777991816 -9.0802998959 -5.5227289804 
-9.8595052135 -9.0509895524 9.7529242673 9.2380344512 -1.2330424574 -8.7185415109 8.9323421259 7.1864172613 6.1210694213 
-1.8211271642 -1.3850813361 -4.7081880097 8.6776474029 2.8364227472 9.6514835416 -8.0929535514 -2.5251258421 -9.1028485089 
-6.3639420906 7.284120425 9.2864433805 -6.5976403271 -1.5574614407 5.3857655021 -1.5104665706 -5.6822919105 -9.2683505282 
6.4598995354 -6.0153028652 -8.3582947339 -1.735728045 3.8767756547 8.1404142718 -9.4514254845 0.38122238186 8.1459534699 
-3.9202683807 -4.4543092383 2.500776019 -2.7179490648 -0.54546967336 -1.5299756295 0.073386580651 -4.4105186391 -2.176435559 
-8.0842256347 -0.64316953634 -0.78069348525 -1.13881625 1.5202737484 -7.2085127813 -2.6159956926 0.4446667659 4.3241438237 
1.8275791983 -0.25976568179 -1.7869341855 -1.926225357 -1.3523592767 -7.9434665322 6.4962956519 1.6567965528 6.9706969263 
-9.646863597 -4.4676918274 3.2491140645 4.0443096446 -3.4509136664 4.4473665617 -1.8646596993 2.2249821198 1.8089756943 
-9.5200115309 3.6186573582 3.3856008818 5.0377104992 -9.7605238385 -8.6652845942 8.8476046379 8.9563110869 8.2878503516 
7.2441981578 7.554292461 -7.2784935416 -8.4286561672 -1.8835167275 5.377896654 5.5838576903 1.6433191606 3.0975656804 
-4.0795705209 -2.554782653 4.9444316313 9.1173622039 -4.6478713229 -6.1215053731 6.7960777769 -1.2197550542 -8.5286152576 
-0.35832660426 7.7328115778 0.14567413158 -7.9323359262 8.6459233394 4.8230384024 -6.5066668661 -8.6154320711 2.0597235832 
-7.3741842483 -1.7591661413 -5.1719469128 -8.1707954703 6.7745351757 -7.7290913522 8.186370285 5.2147916586 -2.8526659065 
1.8095794879 7.6158716467 7.5899483089 -9.2770957168 -8.9630501678 8.5288059702 2.7824290528 0.50493090144 -2.1513339658 
-9.6271439824 7.5350830246 -6.9804538692 6.5229435699 -6.8242098939 -3.0097703832 -0.72298194887 3.6623212121 -3.5055987046 
1.4902067202 -6.0086869779 0.38631510051 6.1089909282 -3.8366421327 3.201010521 -0.4742216889 2.899853656 1.8274175655 
1.6475744666 3.8005767976 4.1656602728 -3.9222749339 0.51478516777 -4.3567841375 -4.26334658 6.2255161425 5.4010712719 
3.847326552 -1.4794914416 -5.7863563503 4.1829596174 -4.3945274259 -3.1712755857 3.1637169939 9.1583442627 -2.5828863398 
7.584880426 -8.5434328783 -2.8624130064 -6.9079683531 -0.9435832405 7.7868599051 3.9634584159 -7.069500539 -0.5318541419 
0.027697188894 -5.2912507784 5.4853123536 -8.0917102812 6.4802490396 -3.1879931241 -6.9700395537 2.1727184976 4.5687454174 
-1.7140124573 -8.5228222811 0.59022005968 -6.1528232301 -1.0753161347 -2.2265520348 3.0521928899 -2.0217093415 5.3407048293 
5.9919756517 2.7932380979 0.2894087929 2.1798720439 -3.9425624009 -1.1472182856 -1.4598597976 6.063107642 -2.3662678541 
-0.83740169582 -3.4336609941 2.9014547773 -9.0453639268 2.5251625866 1.5575635548 2.4734213671 -1.5796121501 2.7415435744 
8.8155313945 2.8607442788 -8.4321449697 1.0345530226 1.0862039153 -2.0270299388 -5.4399040589 0.68629028129 -6.1027989032 
-6.3021270497 9.2139524079 -2.0394910123 -1.5307449339 -2.924168218 5.2109124395 -0.41717807504 -0.94764280926 -3.7871124215 
5.2943636857 7.0062952749 9.2579649316 -4.2693335022 -7.5320502409 5.1154180686 8.574726241 0.98775680149 -7.3506892267 
-8.5815608839 -6.9444405148 -6.8777501602 6.6957492678 1.1771429485 6.5189076729 -8.8818992551 -5.2599446902 4.8272125971 
-7.3733630411 -0.43398450209 -6.1083138933 7.4781421113 -5.9841399787 -2.7454186479 6.9942639712 4.6738992941 7.3224925086 
-1.6958677344 -7.5219368443 -3.441884501 8.6611295648 0.76315360907 2.6463425393 2.317601053 -2.5103797629 -0.067718711891 
0.65570077495 -2.7531203215 2.636735787 6.0790819656 -1.5214868092 -0.029697585914 -7.494551994 -2.1222622781 1.9872315976 
-4.5914714936 1.6167630257 -1.8423786646 2.8481973925 -0.8522471317 0.48763787293 -7.7496802568 -0.15865418976 -1.0772859156 
1.2986136447 7.5176563428 0.049896979531 0.17191516751 -0.070459135734 -4.7912218531 4.6897819786 -5.1224780813 -4.3462712929 
8.7450522732 -3.0773047973 -2.8406266933 0.85615968494 -4.6063639453 0.98101587425 -6.6103938962 8.7267317403 -3.8825310327 
1.3813565689 2.5612586109 8.4766523231 2.7130513997 -9.8297293924 -2.2001948642 1.8788097598 5.9339726482 -1.5036311441 
5.648080566 0.013546112914 5.5052397406 -4.8205461721 -3.115878975 5.139717904 -5.0830694629 0.97782804867 4.1046534116 
6.2640022765 5.5191603573 -6.9609612033 -4.8415756156 1.0239702294 -6.9092768744 7.454353658 -4.7824934343 1.5569246143 
-3.8915506254 9.8787700439 5.3163727331 -5.7163838616 4.148938944 5.456718177 1.135506209 8.9899351505 2.0983721488 
-9.1397357954 2.2444296979 5.1781965258 -5.7071602076 -9.6931094835 4.2457264974 7.4802456143 -2.8452904908 -7.6900509652 
0.68218534098 -9.8042873782 8.9835000935 9.7534202368 -5.1547654727 2.7188747759 3.493652895 4.1381726761 1.0692161688 
7.9056505535 -4.2796682268 7.9003535528 -8.0739529101 -1.1105624172 3.199272234 -3.4577883761 -4.1462813186 -9.6112350076 
-3.9257256269 8.7249982533 5.3244544254 -9.3893993342 6.6839856187 6.5563349365 0.43596248838 5.4615887261 7.4446735471 
3.1575369633 -0.59706373509 -3.5794642174 -7.4567897297 -4.3416309927 4.3551779284 7.4016220504 -4.0018213138 -3.5004296307 
1.8472744462 1.5768831514 -3.5855725948 -4.2546871367 4.5944838724 -4.2569134792 0.17389700805 1.4372238004 1.6977038996 
3.017511302 3.3170335997 -9.2480446159 -9.9346745693 -4.7407085789 8.258215155 7.5123183754 -7.9935933545 -7.7531886897 
4.4417609684 8.4760655733 -8.1289693845 3.3343072926 2.6570170069 6.2958081874 -8.0279037625 6.42473552 -3.7217817691 
-8.9094699885 0.7133697582 -3.7357765533 -0.23026923246 0.47923612611 -2.5592380637 1.8874124557 0.059391172986 -0.54283207317 
3.5628389288 5.2112439997 1.0819356999 -7.0978542121 9.2275815521 8.103137553 9.4736590983 -9.9784539089 -0.98238655782 
-7.1470486743 -5.2131449185 7.0439188612 -1.7688252919 4.9192456221 -0.99390636241 -4.4566283905 -5.469760785 3.733930074 
-0.056934768131 -6.8120940295 -0.57210506876 -4.8072971888 4.7278331229 8.5696296385 -1.8683690535 -4.5315936204 2.6600888354 
-0.12151879681 3.1844691359 7.0970998034 4.9751162345 2.2157003256 -6.0255650379 -2.4069573877 -0.53028986335 -7.7874517762 
1.7926786596 5.655341342 -8.6036601342 8.9898981179 -1.9131685103 -2.6234124632 -2.9422594423 6.7333786191 2.0146139263 
7.8782005825 2.4268510312 8.3386501061 -3.8608432471 -0.57916169052 9.3662323613 1.2676372145 -7.3033159956 -5.8920798735 
-4.1262644298 8.5992655111 -4.361968398 -2.1119827568 -1.412164863 7.5866495172 6.2552397232 4.1289655654 -7.2723045149 
6.4314284155 5.3351933299 -4.1128391336 -4.6213191836 3.8064196416 -5.3886186479 -4.1651549245 -1.1906731938 0.80026640665 
9.4005057853 -3.9135496226 -2.8596502736 -6.8500890171 9.6712790521 -6.0409889904 -3.6640486209 3.3484291298 -7.1852260215 
-6.5566525809 5.3777347836 7.8665650891 6.2784097107 2.9377058757 -3.7709925493 -6.8132760113 1.1085533413 2.6839973266 
6.3234215632 -0.84431591194 5.8168883864 -1.7635683034 -5.2251790605 4.5310539713 -1.1468528995 2.6135603089 -3.2399292881 
-6.2931162776 -4.9040408537 -5.2113392466 5.6661785675 8.701427521 -2.7531294641 -7.4908830921 1.1800780852 -2.881351631 
-5.9114897559 6.2355531746 -9.7143757029 -1.1870949514 6.0141159692 1.2211422571 5.76784907 7.2682224473 3.7532976115 
-7.3230198425 -7.9322821817 -9.9082964625 -6.7366454825 7.5295030052 -9.7080918267 4.2652703212 2.000838025 -3.3730093449 
4.6700766772 -7.2227715254 9.483216569 6.3823299223 8.6244225947 2.3338093567 2.6154060077 -2.5743643818 3.618210424 
-1.8204978106 3.6960311683 -1.6390159428 -1.9794713198 -1.6420227793 1.9186441586 1.4360393023 -2.1643570382 -1.1854211811 
-1.1359100888 -1.7984758543 -9.4182758826 2.8835953425 -0.094553143255 -2.9430162507 5.3236564657 7.8293567236 6.1642326075 
-0.24447774682 1.9617719089 -6.3329649646 -2.9888078697 5.576222281 -5.2298413445 0.28190946825 -3.4506033128 -1.4984881323 
-3.6007847002 2.8976851755 2.6146180091 0.95423586824 -4.2360172447 -4.2289558298 5.4419768474 2.5046851156 6.9493947604 
-8.6431303435 0.65102744494 -5.4003780067 2.7202686408 7.0717217116 4.0103668612 -8.3845101387 -3.7629261906 0.57243095649 
-5.1549171253 7.7309464987 -4.9552007736 1.7978942135 3.1172186933 5.449554018 3.0563513993 3.5902201022 3.687539557 
-5.4413036175 -4.5251312277 6.8211025967 -4.8370312635 -2.3003665795 6.2665725745 3.3749885177 -3.7042987677 -1.1365062597 
3.9982563631 2.8112114137 3.869279041 5.6078974434 -7.0982119466 4.3380098201 -1.1901901182 0.71963130552 3.2777794219 
1.9781591642 -9.228780695 3.3666694176 -4.3263074011 -8.8092210737 -6.0583814685 6.7589687605 9.6068000067 6.9911561825 
6.7556568164 -8.409469903 8.3007626025 -2.7541800998 -2.6894501091 7.9713550659 2.379521272 -1.1876144885 -9.3313231141 
0.16877062942 2.0849712883 1.0309637083 4.4737824555 -5.2316306111 2.182935395 -2.1197436301 -9.2066814914 5.3811439131 
-5.9442276398 5.8909585291 7.4214261796 -7.4488142523 -1.5977022641 -7.5744903047 8.8951835926 4.2455625477 -3.9017601328 
7.502552335 1.783038053 7.6137045437 -8.4114594714 2.4149067616 2.2230031989 -7.1845110459 -4.2981851501 -4.729566041 