# vtk DataFile Version 5.1
vtk output
ASCII
DATASET POLYDATA
POINTS 1244 float
-6.27576 -2.26045 -0.84269 -2.50246 4.41555 -0.193348 -0.207241 -3.01102 -0.111442 
4.76313 8.68376 2.85406 -0.195906 0.276367 -0.841564 5.46927 1.3954 0.766518 
11.2478 3.87863 4.96591 2.62562 -0.23126 3.62115 0.447774 -4.16347 13.05 
-12.5202 -11.3938 3.29768 0.441723 -11.002 2.43998 -11.3301 -9.95156 1.53555 
5.73348 8.9615 4.91736 -11.657 -10.4457 7.65543 -0.0139758 -11.3447 8.53525 
-12.679 -11.0811 8.19767 -3.83176 -9.60123 -1.2747 -3.87061 9.21926 -6.69664 
-7.90052 -8.57876 -7.25599 -6.99236 2.00283 -6.8711 7.74698 8.27929 8.45547 
-14.0989 5.36093 -13.8299 8.57895 2.40383 8.02684 -7.1292 8.57159 -6.53834 
-6.09321 20.5732 -6.1159 -9.1617 6.28744 -8.99299 -11.7757 12.4415 -0.911244 
-6.56689 5.95761 7.01512 -15.1704 -1.48642 6.86688 -10.7044 -7.1715 -1.15874 
-18.8517 5.06362 5.4082 -9.78645 -7.48917 11.859 -14.7386 -1.76432 5.23913 
-11.0799 7.0778 1.17626 -9.02576 12.669 16.2085 -10.5777 3.85052 14.8492 
-13.1298 6.33304 0.888631 -4.07955 0.147358 7.05898 -12.6356 6.94352 -3.61957 
-16.8524 5.23207 13.9803 -12.977 3.72537 -3.35509 -0.184405 3.12643 6.58024 
-10.9383 0.419472 7.8036 -11.6099 17.2637 7.24883 12.2995 -10.9744 0.445343 
3.45657 -11.9694 1.91707 -2.83096 -10.8148 10.0062 -5.78241 -9.76204 -0.45483 
2.44547 -18.7733 5.26928 -6.98269 -9.12914 9.91377 -2.41819 -12.0766 2.25436 
6.79005 -10.8084 0.451311 11.8735 -12.307 14.7251 11.2261 1.8679 -12.9949 
0.533741 6.69182 -11.4077 6.89124 0.368001 -3.46476 -4.10573 5.85899 -13.6195 
13.4625 5.47301 -16.6785 -4.79954 3.0334 -14.3287 6.59253 1.65467 0.351493 
6.2676 0.765068 -11.9335 9.08312 16.1589 -13.2536 1.54515 6.25773 12.9215 
-1.48954 -0.628084 7.17467 -0.589988 -1.68099 -0.188097 5.89626 6.05973 6.23437 
-6.43737 -4.31972 4.83234 6.02069 5.92709 3.27656 2.20349 -1.67748 10.8568 
-0.0696063 -4.95655 3.00669 5.24549 4.23557 21.3943 8.87685 15.736 7.14438 
-1.22361 9.374 -1.28757 6.49092 3.13595 6.48433 -2.9281 4.16676 -2.89136 
4.15846 18.2535 3.52729 -2.63192 1.40994 -1.77977 7.39195 5.1248 7.44643 
1.5659 -1.34022 1.48343 4.17665 20.2251 3.7379 -2.39769 -11.512 -9.04917 
5.84358 -2.54822 -13.1554 2.53206 -13.2236 -7.44687 2.04987 -3.71648 -15.7118 
12.2944 -11.658 -6.54185 7.64932 -2.15857 -15.175 7.0605 -12.0799 -6.02149 
13.1969 -2.69858 -13.4908 8.64834 -12.3306 -8.04025 0.103021 -13.4734 6.95533 
8.61066 -6.06317 14.3354 6.61104 -9.86436 -0.646418 11.5344 4.71627 10.3921 
5.07088 -12.0131 0.689167 -1.18892 4.31768 10.1794 2.54023 -9.00251 -0.634321 
-0.286156 2.38312 5.81183 10.3634 -14.1155 10.2751 1.03774 12.4683 -12.6645 
7.31766 1.02254 -12.7544 0.203698 9.73522 -3.06064 5.61844 2.1082 -14.2554 
5.06771 18.2026 8.70752 5.06953 3.39806 -13.2881 9.03547 10.6325 -4.18598 
1.02976 3.32401 -11.5271 14.0904 10.6582 -12.1283 2.80164 -2.90296 15.8775 
5.78319 -3.77125 -0.26532 4.12108 8.89167 5.81549 7.67145 -2.49801 -2.77031 
6.41486 -4.55225 12.4887 2.46979 -2.51624 -3.18694 7.3179 9.49494 6.54033 
0.257239 2.58507 3.50005 21.9498 2.86726 5.16238 7.17387 -0.189179 4.69165 
-6.76946 -0.663426 -1.60193 6.31739 5.95763 9.81247 4.66365 7.87526 -7.09295 
-4.17997 7.66437 -0.237364 -7.57812 1.2824 11.7061 -1.21729 11.4202 3.69928 
-6.36415 -0.558017 13.0491 -8.51933 -0.36834 11.7113 -2.0858 -3.71758 -3.69554 
-9.9451 4.48775 0.207953 1.94961 6.15956 13.2039 7.40976 2.89994 8.94608 
1.73145 9.07204 13.6148 0.0647588 3.22462 9.06046 -7.39779 0.103307 12.3839 
-7.57345 1.24646 -2.80614 -1.99369 3.47101 3.1383 -5.21143 0.0186502 14.7144 
-1.59151 5.32361 2.01903 4.79138 2.38174 2.84107 -6.72727 10.2744 12.3466 
-11.4925 9.30264 12.7158 4.97376 15.5138 8.38314 -5.56167 -5.62748 9.67203 
-4.43994 -2.87528 3.38248 -4.94929 7.50927 8.95429 -11.0302 7.73283 0.539582 
6.31649 7.62053 -0.604877 -5.27127 4.57979 9.39053 -2.15008 4.34732 7.28379 
-4.17657 -3.29757 6.86336 -6.76168 -5.3026 1.66215 2.05214 15.5949 2.4367 
-4.03814 15.5235 16.3034 3.43175 6.85975 12.2333 -1.68607 14.5325 4.96048 
-6.82469 7.99547 8.00142 -2.35726 5.22854 -2.3586 5.78471 6.45962 -2.74251 
6.33255 0.404103 6.88591 3.88266 8.68924 3.46443 -11.7733 -0.0625168 -1.31752 
-2.72558 3.70636 -5.57591 6.64868 4.25397 10.1831 11.1639 3.62605 8.44169 
-5.42259 2.28185 15.5124 -9.93222 1.24296 11.5559 -2.2509 8.10628 12.9608 
-10.6017 4.30782 5.3986 2.55168 -1.83941 8.7438 2.87866 -2.18494 14.6819 
1.10487 -6.61451 10.8139 -6.43813 1.23463 0.658793 -8.12396 0.704699 0.763604 
-8.12628 0.112195 9.99419 -7.26515 0.933425 8.07897 1.37713 -8.71396 2.47394 
2.36767 3.75944 14.3401 -1.41907 4.4511 3.13737 5.6016 4.96764 16.727 
4.91356 3.90365 7.55924 -3.93011 10.5293 14.3859 0.145375 2.5125 17.4871 
-1.81952 1.29315 1.84634 12.1841 9.48166 9.7004 3.80405 7.70541 16.8573 
5.24447 15.3474 10.8463 -2.53237 1.62201 10.7395 2.39297 2.27901 5.18922 
-1.52428 10.5303 -0.44418 -11.09 6.23997 2.50264 6.48023 8.29236 13.4278 
-4.44161 4.02141 3.25667 2.63199 -2.68667 3.55656 -0.516949 11.6427 0.920743 
-0.542875 3.06085 9.64579 4.93084 6.04795 9.68507 -2.33763 11.1856 4.76618 
-1.16954 12.6168 14.2254 -2.18416 12.6568 -2.35182 2.43511 7.12037 13.1991 
9.06306 2.88508 -3.18382 -10.2268 1.02649 0.669923 1.19523 4.25044 -5.35824 
3.65448 5.34757 -3.33034 -4.92519 5.30367 9.82716 -7.61706 5.2907 4.85846 
0.690779 5.90258 -6.64989 6.33464 7.83047 9.45706 -7.12458 -0.210496 4.62135 
-3.4534 15.4628 6.20862 -12.373 10.1554 -0.607569 -3.26998 5.20657 -4.54758 
3.86433 10.3013 -4.57247 5.69927 1.96576 2.0361 -7.04661 8.6402 7.74528 
4.22473 -2.45392 5.70324 -1.76565 3.22398 -0.978683 -0.426485 14.1056 -5.04785 
1.97936 8.19592 -0.68988 -1.82621 3.42809 -3.63621 7.1332 10.1158 6.405 
-3.78077 13.0788 6.53751 -10.1148 4.35628 -1.26463 7.22987 6.80788 -4.25304 
-0.306936 14.7031 4.03208 7.88097 16.8231 2.9299 -2.15494 -1.782 -10.557 
7.12099 5.63896 6.9829 -13.3187 9.38401 11.6761 1.67443 -4.04593 6.93196 
-5.9749 11.452 3.76246 -3.16904 10.3661 -6.42196 5.8511 1.80443 -0.709796 
2.76273 4.52193 -1.05245 -6.80836 15.0103 5.71534 -8.33981 5.8212 3.57257 
7.21384 10.4231 6.71904 3.82177 5.8301 13.7599 -1.12566 3.94072 0.515901 
-0.892225 -1.33306 10.5078 -0.927271 12.6815 8.66545 -1.73086 14.4667 5.74477 
6.94941 7.47254 9.55163 2.08112 14.7257 -0.685176 -1.61433 1.50186 1.31328 
13.6093 13.1148 3.81807 -8.66274 4.28003 4.58154 5.55362 2.83759 8.73811 
0.215612 3.59805 -7.7215 -2.92287 7.57826 8.94724 -8.92429 2.32491 3.47871 
-1.50635 12.2347 7.64545 5.2699 4.30862 -2.54758 5.21233 0.342756 -0.709803 
-5.69636 0.871895 2.25118 4.19101 -0.242853 -5.63511 6.14841 -0.136486 3.59127 
-4.30835 4.51956 4.89005 -0.354973 -5.51718 6.54019 -11.6 -2.00037 8.3716 
1.40845 7.38965 -2.74538 0.874532 -6.27145 3.89304 2.48569 5.7169 4.81522 
1.47106 -6.00022 -0.351451 -6.12417 5.13606 4.87166 -2.67305 -5.70564 1.49525 
-0.833987 3.84864 -5.94778 0.314337 5.17036 -2.45573 -4.63258 9.65696 7.83183 
5.89045 0.610259 1.33333 -0.890492 -4.39833 11.7899 -7.71221 11.264 8.18503 
-1.70531 9.17679 16.8719 4.19197 9.08907 2.72693 8.39022 0.720199 9.66089 
-6.94722 3.2454 1.56308 -8.07774 -5.12785 1.66849 1.29584 -5.93995 9.59905 
1.84935 6.4083 4.58528 2.01383 -5.6663 8.23264 2.29218 6.64702 9.93736 
2.98916 0.638953 16.3954 -2.83972 -0.864611 5.41092 3.44446 -2.29571 5.53091 
5.59895 -0.77998 15.0704 -3.00274 6.49695 2.34134 8.30491 -5.60654 8.54748 
-2.17606 -4.36211 9.09125 -8.9677 1.64349 4.51485 1.6751 2.51559 -1.38795 
-0.480186 -5.29219 9.54286 2.8788 7.17955 11.2966 4.75801 2.47623 -1.65675 
-6.87125 7.59083 6.27504 -3.60484 2.27952 -2.41514 -3.51811 4.69519 11.5714 
-11.6035 5.44186 2.33992 6.59724 7.71251 3.65348 -10.0092 4.06417 3.76109 
-1.23644 -4.44241 -0.270501 -5.56376 -0.283941 7.00648 3.7936 1.56171 4.11894 
-6.40658 6.6571 -5.76942 10.5128 0.911816 1.97879 -2.09533 11.7387 11.6645 
-1.5842 -1.81004 -1.88716 12.2349 -5.28105 4.23275 6.65424 -2.09696 -0.623457 
14.9209 5.45619 10.0238 1.14154 1.74197 -1.73083 6.37168 7.16067 -0.053027 
1.6957 5.50951 10.3625 9.13041 8.79607 1.58789 -3.60288 9.00466 8.67421 
5.73802 1.80862 8.8476 10.9466 -5.94153 0.0608868 6.54692 3.04283 4.91623 
12.6049 5.22476 13.1668 14.1475 -2.96153 5.759 14.6463 9.57916 11.4201 
5.38737 -1.72589 9.17882 3.92951 -1.52995 1.71095 7.97832 -3.42462 8.03021 
9.05336 0.0144194 -0.580005 4.36854 0.030941 14.6821 8.8461 3.54141 0.689789 
19.3129 2.75304 7.13888 15.9741 5.11429 0.348663 13.2866 9.49103 2.03916 
12.9115 18.1106 10.4993 11.8617 -0.740426 2.50451 6.2866 -4.66402 4.07102 
3.71572 3.25253 9.28964 1.98956 4.10046 -0.121489 16.4712 4.39496 0.113037 
10.2812 0.525437 4.59542 2.72865 8.41375 -3.20904 6.26315 -4.30316 5.63208 
7.76391 -3.81479 4.05838 10.9659 15.5862 1.0633 8.32181 8.2142 4.60076 
7.46742 4.85756 13.1871 12.2087 10.287 4.49075 1.76756 3.39867 8.3729 
7.78857 6.7795 -3.27325 15.8063 8.06831 -3.07626 13.5121 0.825434 8.57876 
13.6932 -0.754777 6.6716 2.37404 -1.117 9.52323 9.78974 7.61382 0.735868 
17.5327 4.59349 10.1929 19.1004 4.71215 6.00097 7.06309 6.54175 11.195 
0.840073 -1.31341 3.41648 1.59851 -2.65121 14.8693 -2.97751 4.05812 6.01134 
12.1153 -1.96211 8.91582 12.2716 -2.60561 13.5909 16.5226 -1.08091 6.76524 
11.7798 -4.80454 7.92269 2.50662 1.71668 11.0728 3.0808 0.953363 0.222879 
1.7344 -0.407509 5.7849 14.8254 -3.26908 3.4274 12.7047 3.28672 14.6109 
9.20173 3.90756 1.24885 16.2556 2.92604 17.9886 15.065 4.88805 8.04252 
4.75495 9.59165 15.9513 10.3939 0.226742 13.7162 5.79125 -0.5707 3.05582 
13.8308 12.6266 10.7025 14.5859 8.50391 17.005 2.18232 7.46547 7.01393 
4.65098 10.9543 16.1198 8.19854 -2.86307 9.04174 6.91438 16.6002 7.1081 
16.1008 1.83239 10.4145 16.8141 11.5542 18.1425 7.43443 7.82212 1.27113 
3.10997 -2.01129 -0.0300971 6.97464 12.9652 2.29306 12.7026 2.50421 13.6355 
-0.485384 4.70144 5.16157 6.62733 12.2472 12.0413 17.6551 11.7662 8.4757 
8.89397 12.744 0.137737 13.3883 8.29313 16.5568 16.248 2.36999 -3.29999 
1.93957 4.73316 -0.337105 9.6603 5.09304 -4.37013 18.228 4.65221 -1.72971 
[...]
CELL_DATA 2484
SCALARS scalars double
LOOKUP_TABLE default
-4.5309034546 -0.69724183028 -7.8885003553 0.29113068081 3.9210679759 5.0963680134 -3.7363634194 3.437130187 -5.6148502049 
-5.2635751069 -0.28309976737 3.1340983231 -3.7230144783 5.4512483646 -3.8738750754 -5.7387222513 2.6805299751 3.1409075584 
3.7071577119 -6.4055846915 4.2734802533 -6.2221563265 -0.63437037421 -7.6374207406 -6.9870513808 8.827402617 6.3873874833 
-9.7392766852 9.1193523673 8.1138577642 -3.8857115024 -8.405841619 -8.7815354199 9.8164798867 -9.9976370751 9.9874092568 
9.9185116515 -7.9061816982 -7.4400140365 8.6426246623 1.0133488329 4.129359918 0.88096077268 -4.5309330875 5.7502625 
-9.110251047 7.9050176698 -5.6425534802 -4.3024004575 6.0914090924 4.9647750837 -3.636117386 8.80662183 -2.9742840595 
-0.4464170553 -4.8326736475 -7.008008519 6.5005374765 2.106357835 2.7546128877 3.6615774817 -2.949715028 -2.5147642518 
4.7868815944 -6.3746022538 5.1624054142 -2.0696948529 -8.950125612 1.3034376725 1.1848182444 3.7338214049 -8.1080095706 
8.6561788955 1.4577702716 5.7930893459 -2.9695089056 -5.2651853067 -2.940158423 9.510455073 -0.99337607043 -3.2441578477 
7.3570895339 -6.8380632538 5.0951757489 -6.7174129846 1.8722420407 -0.046816312499 -8.6572417495 -5.0308287253 -9.9037750882 
9.88378066 -6.7940832463 -5.4102706293 5.3215621121 7.2344232888 9.3751028947 -8.2774593287 -7.9687570672 8.8634903912 
-9.397768405 -9.940441234 -9.7298938188 9.4483202049 9.1597788341 9.2467508877 -9.7662551816 8.3064241473 -9.073625854 
-9.9848241021 -9.8478409105 -9.6276477544 9.8533760482 1.9398055485 5.5890502558 0.052818832973 -0.69735069582 -8.1282993745 
9.4861286886 -6.3532824522 5.2493387042 1.0782205786 9.6292507819 7.8564817751 -5.7144916644 5.763706326 1.8196083086 
4.8029264286 -7.1435992644 -6.3101089828 -0.35850301455 4.9462742962 -6.2057249836 1.3249724265 6.3833216559 -1.5867592131 
-3.0005204763 4.109296593 -3.8465089435 0.5157538049 -7.1563270382 2.2431990064 -4.8045788984 4.086945152 5.4616607191 
4.88195408 -1.2705503626 2.0068878538 0.5097718395 -7.3003609583 -3.1972490585 -0.91967819463 -2.5026739192 1.3170114269 
-7.3024648921 9.224873315 2.5781020289 0.92635043625 9.3619812291 9.8880033064 9.7671528391 9.9817790976 -9.9097647223 
-9.3758312625 -9.9030169851 -8.1621581413 -0.9019989034 -4.3162771946 0.61511204266 -0.030944925885 -6.4131505781 1.5713270557 
6.1070262481 6.5709911645 -6.6587455362 2.6798910143 -6.5195895125 4.6327780838 -8.3089596006 1.9123457537 -0.41445822319 
1.3402768428 -3.3810166797 7.3763302814 0.3515116765 2.125276353 -0.92780611993 -9.1043143513 9.2532232077 -5.8304546368 
7.6305211407 7.1987517622 -3.8071290554 -0.56642597159 2.6721351213 5.3134179913 -8.1569309293 9.5665495859 -7.5227332539 
7.7409326573 8.5487804737 -9.1649361531 -8.5656094666 -5.67639769 -2.2747083931 0.13266696494 -0.0061284954778 1.6188836397 
-4.7806258285 -8.8009368719 2.3494177734 0.22038419467 7.3656116946 -0.75287147549 -1.6566489469 5.4058059718 1.4953855133 
-8.1418407822 -0.8242060462 6.3293208133 -2.7777995687 7.1372816213 -6.4985611346 3.9469646894 -8.0092582007 -4.9841850228 
5.8313527401 6.4343657314 -8.4686489194 -1.0343718315 2.2971335768 9.9308898009 9.1342615553 9.53577447 -9.9404177481 
9.7002534353 9.3816417385 7.962567448 -9.6409537453 6.1009633514 9.2477505943 -6.8607921884 -5.8727001967 -9.80234077 
-9.449818991 -9.1076586523 9.961343826 0.92784809825 4.0791966516 -5.0427219472 7.183548546 -2.4067139534 2.0450812506 
-0.88170453375 4.6032063179 -6.3444328777 -2.2062577603 0.28078607587 6.4517101579 -5.4629177956 7.7313410256 -7.8100455579 
2.4547199159 -4.3682573326 6.9380667634 -7.480991225 3.155582292 1.2888898603 8.9446853829 7.4817396977 -3.7461136941 
-0.20984268787 8.8190536444 -9.1041618926 -1.1330284443 -4.670529102 8.322845849 -0.458561557 7.2367521073 3.4502754899 
9.8956761686 -6.6477703381 1.6288281467 -3.9820856603 -7.9738102725 -8.5852718869 8.0912469755 5.3195679543 -8.9152953507 
-3.972358168 1.5428303391 -9.7192589129 -8.7596709865 5.3218414311 8.5121109923 6.2418623245 -8.0646181819 -2.6152114454 
4.2784541177 2.9385583529 8.4438775686 4.1927071251 -4.5871506549 -2.9331303237 -2.755640569 -2.5003974978 -1.6714682094 
6.4516257526 -8.8514678062 1.2595229203 -0.72767714996 2.067607874 7.1862491271 8.526305812 -3.4472079112 -1.3885202223 
-8.2040436762 8.4018938458 0.82154667903 2.5405664445 -8.1732798476 6.6764217538 -2.4045539208 7.6201420738 -3.4774228159 
-8.2777853861 6.4276783816 -6.0205040009 5.8716815608 -0.47624532057 5.6244345509 8.9617133519 4.5186452363 -3.6930820304 
9.8914847661 -9.3144345932 -5.5138854702 8.9967778711 3.6298561102 5.9430790877 -3.7337774043 -1.7600754768 -3.6650418788 
7.1313289609 0.61952295614 5.782485866 -3.0796689438 -0.044379985396 -4.6871367048 6.3291110959 -5.3074880233 -7.0768656919 
-7.1451496695 -5.5851783527 -8.0557575239 9.8701404321 -2.9447674681 -6.9606275831 -7.442592047 -1.3386018076 -9.3664617401 
-6.4385873653 3.2604932237 9.3890121577 9.1665035165 9.9499035068 -9.1644395466 8.332921931 -8.7113005723 -6.7999440389 
8.5837092968 9.9763580831 9.2130867413 9.671899382 -9.6390388447 -5.0727810683 -8.1751952339 5.9693734319 6.846539094 
9.9813764665 9.0267827212 -9.8520265799 -9.46817359 1.464118211 7.5031171296 -2.9918364599 -4.2881470636 -9.4136039977 
0.97740879938 0.97733088793 -5.3580424957 9.7569939346 5.8119290873 -9.2951853171 -9.2834539422 -3.4869126793 -3.4858591558 
5.7660880291 0.41595030163 -8.0744089611 9.7123699752 -1.5782787059 -0.60389774607 0.77167204053 9.9455188849 7.5424310939 
-7.7721443767 6.4212264006 7.485295045 -1.1959127804 -4.5445833257 -7.0230092431 9.6351120441 -3.8439674265 -7.0688228622 
2.739281623 -5.9280428675 -4.7195518808 5.2967572512 -5.1880459969 -3.3812753855 3.9881051428 6.4167210696 -2.6802771244 
8.264392122 -2.4777199943 4.6379350126 8.2250039353 -4.1839109065 -0.90973845259 2.0458599133 1.0582728707 -0.85330316882 
-9.8814674789 -1.8640258165 -0.92040846764 -2.4199163947 -2.4694609157 5.515634367 6.4147970504 -9.2307899351 -6.5440779163 
9.9897631434 -9.3244219984 -8.3396996912 8.2147675977 8.6818896419 9.4490273025 -2.5649380266 3.4550215475 -3.5957064688 
-7.5679138978 -0.3391938598 -6.4226516129 -3.2866443367 8.8403620765 -9.6721055418 -9.1738802172 8.7859763166 1.1665086091 
5.7359722665 2.1336563611 -0.82247799989 3.6120073125 3.4915291396 -3.9301207044 -0.089925326164 -4.2559468939 0.36861793072 
-1.2053203682 3.1207852295 -5.1221516106 -4.7723097119 0.42501193088 2.67482441 9.595368615 0.84875440689 -1.3069053758 
-9.0115858564 -0.19982843528 7.3627028213 -9.2114669694 -1.1352676735 -6.2096935274 6.2191134395 2.1156075257 -6.9867120144 
-6.1124000352 5.147695937 5.7956798215 -9.5925298641 9.8782451476 -9.9848921261 9.5257811339 3.3241917713 6.1536768711 
-7.4811087798 5.7171010457 -6.979939268 4.6190453969 -4.5487329758 -4.9480177539 9.3137971428 -2.9330442785 2.3645344613 
-9.5976810962 6.3481432955 7.2430794765 -5.8605925322 -4.546341457 7.742829274 9.7584435831 -9.9703487376 9.8630787608 
9.9050086526 9.2940306091 8.8262212028 -9.639452346 9.9096119445 -9.98611394 9.9759539974 -9.8870803476 -9.8848968166 
9.7514730737 9.057144298 3.9666129953 -9.5355290914 -5.260445671 -3.6853499513 7.4726075928 -4.9721597381 -4.13095243 
-9.2175519097 5.9683233138 5.7041196166 8.6443620932 -6.7903587663 -7.9207746873 7.9988140965 -3.2864503807 0.71876680608 
-8.2106543734 5.1094807092 -0.60118651567 -8.1782084768 7.5337860564 -0.010322505461 1.5281604416 -7.8051124815 -7.896105807 
7.5425109317 -5.0526278839 5.8812385498 -9.3580013812 -5.6644932298 6.5660595845 -7.5682760395 -9.5064992772 -9.1896441216 
9.8900951899 9.2728667528 0.84350269702 -9.0049683513 8.022171836 -2.8998899949 -9.1138787416 1.2068857596 -4.2932009097 
6.100877357 -3.7564737837 -5.4189661809 1.9596981464 8.4468433566 -8.1507416004 -8.820170671 -9.4716929502 9.8785660026 
-9.8327105567 3.9408266478 -2.8622865561 -1.722895604 4.5913013762 -0.63812865987 -0.73179340786 -0.76198412212 -0.59877158755 
6.3576404065 -7.8299623604 8.7532804072 -1.0125199455 -8.6175753046 8.9325464107 8.4222647765 -8.2825907674 1.3481788977 
1.4806868905 9.8295487536 1.541898742 3.812592487 -9.9736886345 -4.7519559292 5.4901043237 -9.772411609 6.7303752977 
-4.9627798574 -2.5288188381 6.2088847842 -6.5854565109 0.06655589152 -3.6082724629 9.9805034094 -5.6860502542 4.5713955381 
6.3936912311 -7.6197282812 -6.7771502951 3.9258443594 5.2852011846 4.0024848973 1.229603782 -0.42094639352 4.0776149695 
9.2584202434 6.842194008 -4.5490504897 -3.5290196412 9.0856709448 2.8079673481 -1.9001655816 -6.9927184519 -3.6715640156 
3.6462413587 2.5431581407 7.4602406744 -9.7101409625 9.1933122956 -9.2106453452 2.4083112731 4.9001205282 -8.1851686029 
0.058198857189 6.3811236965 -1.7883289773 -5.7040463839 0.71316564853 -9.9923615568 -9.9208105258 -9.4146224004 9.9227108746 
-9.8386833103 -5.0463795724 2.5707398062 6.4549232579 -9.0982915277 -9.7634611941 1.1674215549 8.5719107901 9.7593519865 
9.3528671829 9.9968635583 -9.9952267785 -5.9477630229 -5.7797648069 7.1626235279 -5.7049958842 -1.0867761211 -7.8708066219 
-0.84856309841 0.80264490267 9.409358878 9.0760838081 -7.3018750001 -9.6087117486 9.980261444 -9.4985362367 3.9872235882 
7.6446432711 6.9873260149 0.74168038413 -4.0657150326 -5.5339713714 4.6040995056 9.0172716739 6.5240902429 -8.8019423919 
2.0099544942 3.3652089833 -8.1047445123 -5.0666727054 -1.7617456524 -1.0136199055 -2.8101209822 -1.0034442434 1.7444904306 
-8.0424213985 8.5675134625 6.0656723997 2.5051192296 -2.3998148309 3.5496405556 -1.3476316019 -8.5541578394 6.1535765805 
1.085188235 -0.060466095268 9.9777137124 9.3207724682 -5.8288319864 -9.2128337857 -6.3132698875 7.4295499009 5.8041210169 
-6.7203727464 -3.7983445633 -8.2407219065 -0.0025277124886 5.4617479091 2.0273756224 2.6137246271 3.1050079903 1.9296390158 
4.9343866292 2.7102009842 8.9426473209 -6.720881922 6.9886441093 5.4906561564 9.3442799991 -8.9363120872 -7.6290696361 
4.1260783021 3.1685789268 -1.4016348324 -5.9463780873 -2.9511423962 -0.28420050954 1.1484446966 -5.7944094805 9.4153137848 
3.6440053494 -8.1204263009 0.85245705483 7.8937418148 -8.9455349192 0.88652505209 1.9328994759 -9.462252836 -6.5454624272 
2.028987056 2.9121848627 6.1415368256 3.4262124305 6.6226963953 -7.8915404175 -0.11938284739 1.8942211394 2.3762545071 
-8.7650924418 -9.7353328113 -4.9483218755 6.8652187634 2.1666182984 -4.5873645769 -6.1078509434 7.6987912802 -3.8340332544 
-4.7584576022 -3.3254757471 4.8937365076 9.5991932152 3.4635059935 8.7605875777 -8.8851902102 8.6580257058 9.7275772606 
7.013004186 -9.7645892988 -9.8619279163 2.8538286603 2.9897701177 -1.3733162637 -7.4744145489 7.7101075965 6.7661206739 
-8.9247917602 -9.9525506428 -9.6921965234 -9.3897117403 9.254572235 4.5943846853 7.6550324117 -4.2842968025 -5.7459096923 
-9.8374482624 -8.9259416038 9.9485678557 9.6543994723 -3.128051031 -8.5354102726 2.7278396826 5.9118349207 4.2506468447 
6.0133254093 -8.9885910764 1.1267572805 -9.5076896338 -7.300898511 9.7733253308 9.904950878 -9.0506339999 4.2760628774 
6.7837759744 6.7132769377 8.0142032147 -9.7308587381 1.0229815494 1.3076607045 -0.68917096426 -6.9614597973 -7.8755393867 
7.7738332617 -6.5489991819 -8.8570772943 -2.6761607784 5.0433366126 7.0426926312 -9.7607436652 3.3680014157 7.1815263463 
-0.92202661977 1.5075799835 3.4110784876 -3.3112640014 -3.154675992 -3.0704181704 1.2363416135 -3.0500366278 -1.6871522993 
-7.7697292379 0.22663553016 -2.2482042606 0.29864045753 -1.646207302 -8.3636737585 -4.1613546827 1.1052126105 2.5745737303 
3.5867976694 -0.6160550514 -4.1703221615 -1.3809875368 -0.60315625789 -7.4817280822 6.5116883579 -0.51456782853 7.3539320169 
-8.7462334055 -4.763577974 4.0946186727 2.6928207656 -3.7448928483 5.16368326 -0.91623043835 1.8281492607 1.1044885938 
-9.5794746144 2.987090118 0.91972981435 7.0005891051 -9.1647226023 -8.0705205015 8.31769078 8.0192035778 -2.0279654843 
-7.9043198343 -6.375435884 6.3820056979 -3.0182276401 -1.2277112507 5.117392433 2.3230683469 -1.1193129402 0.80763044714 
-1.1138258611 -2.9015187202 0.48515599431 7.6117376407 -0.56183302133 -2.1689621333 3.0838277526 -1.7871084666 1.6066798222 
5.8366163267 -8.0922750723 6.3536537524 -3.4829553473 9.8211890104 0.73146917066 -4.3247821911 -7.2103149781 5.772976078 
4.2991699012 -1.6783394162 -5.5713661815 -8.9540501422 6.9068189997 -8.1403674929 8.7060301754 4.6166148635 -5.4708764667 
4.6247035394 6.4160885957 7.0215171624 -9.1586984079 -8.352847994 9.1442067307 -0.23176693632 3.0986867326 -1.3251341773 
-8.9641610232 8.2284700871 -7.1085016754 5.8631237566 -6.1800647288 -1.1848173896 -1.7774551489 6.8600419797 -3.7762830552 
-0.90015878803 -0.42442902595 -4.1819956611 4.2940769831 -8.6478245873 3.0065226421 -2.6357410407 3.2364921332 0.23248406533 
-0.95514823844 0.34218235334 2.7955944497 -0.1373792474 5.2212457255 2.0821926241 -8.1309937371 4.2626770659 6.2376238867 
5.07090558 -0.51054906519 -8.1902674797 -5.1556980017 -2.8129424819 -2.3848748049 2.4823432229 0.63600373958 -2.6522510891 
6.4218629493 -1.0710911699 2.1078992102 -3.9377425476 5.8004135415 -6.8466093251 4.4919012151 -7.0031381413 -1.9714646971 
2.1564813879 -6.6915423735 7.5446100615 -9.0671932593 8.5527275456 -8.1817747189 -6.3336623135 6.353042963 2.0707438983 
2.0532388559 -7.3929002952 1.5856827651 3.9399609874 -9.0779587766 -1.9118476589 -1.464315084 -7.6957131424 4.1292799292 
4.3567595761 -1.0995162287 -2.1779297822 2.0975186377 -1.0013654575 -1.1805913206 1.7722552932 0.42996019928 0.63522170875 
1.6928439396 -1.4274794144 0.65774130681 -6.6026780964 2.7804324098 -1.0686260002 -2.4290529323 1.968190226 -0.96526641188 
-2.9272258927 8.9761784964 -4.5101559178 -1.956255581 8.9483412911 -2.1340164509 -4.6957308887 -8.6929169624 -1.4785264166 
-1.3464047199 9.4574789687 1.706765499 -1.4776916974 5.6400390441 -4.1999183526 1.4166614805 2.2171158478 7.7303272775 
-3.7449471938 4.9315185327 -2.105061897 -0.15518525859 -1.0651355657 2.9492352158 -3.9544821056 2.7208228937 -9.4973789026 
1.7431364726 1.0800164337 1.9948792782 2.9742081297 0.79755065217 -2.3301244899 -5.2952063558 -2.0199416018 5.2884747063 
-7.1183408696 -2.124095675 -7.4417286223 6.122263688 -4.8278368649 -4.5751834009 3.4795525122 4.6156458632 -6.9046434619 
-0.48341358547 -0.73860579621 1.2882312099 3.3975104672 -9.055645491 3.855028442 4.4160284152 -6.9292090071 7.5718482684 
-2.483616637 6.6747762044 -8.5234286982 -6.4008175075 6.2031355942 -1.4176479495 -4.946838206 -0.72062264922 0.97892015363 
-2.1833828432 0.36205277446 0.20635743433 1.2219433961 2.5059939592 -0.19918709632 7.8866329249 -2.9396392418 -1.5812140832 
0.0013603257516 4.6171347612 0.63222603699 -2.7390812444 -2.2390388761 -3.4432070557 2.9882653128 -7.0939538063 1.7982924809 
8.6414299283 -4.2693942005 1.0584505989 2.4627633155 -8.4979292789 2.7481017585 -6.49082192 7.0311068353 2.821482093 
-0.96011541222 0.28328383655 6.3200448963 3.3487184098 4.4940884517 -3.8404954908 1.9956937279 5.5009910216 1.404209575 
-3.3480655611 1.3709937956 2.4529791036 -1.3835856613 -3.8188839933 -1.2570607329 -5.7316324185 2.1434963955 -2.7875212304 
6.127039109 4.5261923724 -5.9963936743 -6.5371588303 -0.37927471753 -4.8745786931 8.0359016427 -4.720452436 2.9059692969 
0.92878827993 9.727572696 5.6696702829 -4.431122005 4.0145780116 4.6289864224 2.0831573639 3.8642698709 1.2891706922 
-6.6633796033 3.8774758568 3.9693383357 -4.8732889382 -9.6888403991 -2.7501241224 5.1128541328 2.0328588936 -7.3165176289 
-7.3707415568 -7.3079996248 8.4456435384 6.2068897669 -5.1178905881 6.8154389809 3.0178987226 3.6378970594 0.73111009594 
7.4967285967 -3.6378570231 8.7719171218 -7.4514261147 -1.3225120742 2.7681259387 -2.5495307755 -5.2415865547 -9.8148500571 
-4.2832017548 9.4989178806 2.2505012403 -8.3631135897 6.356453302 5.9731137107 -1.3459479222 5.3983223988 4.7713284851 
-1.4022386072 0.62919236231 -1.9900522783 -7.8488491561 -4.9478577211 6.3350040709 5.0407034294 -2.4579439441 -5.4212247527 
0.031129776282 -0.51152878984 -6.6135532653 -3.4873654591 2.0898156569 -2.0297454289 -0.72065860696 2.5832570632 1.3925110937 
2.5611503651 2.743765334 -9.7024999195 -9.3708292806 3.9306060758 6.2142279563 4.3108535703 -9.1292530457 6.5334949506 
-3.810751475 4.9026343207 -9.7920020258 2.7147517025 2.7008551338 4.6580073449 8.9582594187 -7.5541826369 -7.7389738641 
9.3669940188 0.15707366633 -5.2273231037 -0.69050844863 0.93741409453 -0.66454103065 2.1851149418 5.0545347938 0.3188942447 
0.40016774405 3.1314130657 -0.33722538646 -0.87099403625 -8.4949815539 5.8445722352 -6.3426599166 7.1905041784 0.3686007445 
7.4340910714 2.5818148564 -2.6663736216 0.16144445969 4.200628375 -0.15212726762 -2.6297762531 -3.9697454183 1.3563202234 
-0.47324360182 -3.9985240671 -6.0612819171 -3.9094910006 5.1806900212 6.3590775541 -4.6681280301 4.5381328695 -0.61269376154 
-0.81772587467 6.7219272389 -8.0763975328 0.011948568843 -1.2590463357 -0.78985498761 -6.0876858932 -3.871993445 3.6482744742 
1.7026119495 5.7126543498 -8.8584302914 8.7403250566 -1.7130421545 0.63141343663 1.5198632297 5.686875237 -0.67826411477 
-1.2272476072 2.3505670691 6.1325016909 -0.263282537 -0.52029828318 2.6543483873 1.0946852614 -9.4999761833 9.1239193123 
9.124277936 9.7105740949 -2.1592794604 -2.2682310834 1.0869423417 7.7509225161 6.6078996534 4.3493166967 -6.85628296 
2.9118296379 5.1042685726 -2.9878829604 3.1974785001 3.2534317803 -5.0014643602 -1.2223820244 -1.2095768779 1.0253039779 
5.7193005719 -5.0270981732 0.73735871131 -5.9077218877 9.3090118757 -3.3435979264 -2.1805290736 2.3335430715 -7.9292609998 
-7.5514825475 3.6317405744 7.2468260797 3.7876760761 -2.2332982669 6.7280115068 0.31289492786 3.2968657014 7.3218028867 
2.7265432022 -3.1133059806 8.2207573079 -8.5094663693 -7.4639615848 3.7641694876 -1.7448178237 1.1471682993 -0.80742098592 
-5.0243205453 -5.9828525797 -6.0476887716 6.4580369247 9.3830446735 -4.7987364808 9.1344262948 -6.6476496134 -2.9241699184 
-2.7473829512 6.5077596921 -7.0088065516 1.2527226057 0.20260285479 -0.67810718237 1.2688701636 -0.95284823196 -5.8131904877 
4.8112572611 -3.0221609767 -9.1646625253 -4.0639203502 3.2677768234 -9.9091366583 4.6212226493 -0.89860888579 -2.4040672886 
2.8579920708 -6.7954669406 8.5567084799 6.0907149924 5.416792959 2.8210656818 2.5388463101 -1.0849737046 1.7994246163 
-1.5497396109 1.8232116132 -0.78546986486 -0.86720337258 -0.19758447613 0.69845795629 0.32374649978 -1.3496836565 -0.027812748504 
-1.0546262394 0.23159837911 -9.68451954 1.4636933623 2.8879872088 -0.50055951596 7.626022589 8.2625530642 7.781802266 
2.8092036481 1.3849199307 -7.9186615534 -3.1505766565 8.5691566838 -3.2057806311 -4.0891320929 -1.213423452 -0.42180649697 
-3.758487378 1.6500954588 3.3091835634 1.1410929848 -5.0667915333 -5.0362281582 5.3083679756 1.6286296771 8.2082289936 
-8.6459391211 1.3646919506 -5.24914142 2.4741859097 7.6647169093 6.4342183063 -8.417584654 -2.2710234144 0.95191193173 
-5.1006509572 7.4040740833 -4.6023184078 -4.7252876278 1.7636812741 6.6857809333 3.1996275183 3.5065457529 4.2051961021 
-4.1429754862 -3.9734270676 5.1434116011 -4.5939807126 -0.60759302316 2.5703861834 2.2657755201 -1.7366419922 0.27821279022 
1.7304913141 4.0432273276 4.1345476589 4.8052322552 -6.5399015278 3.9822233778 -1.1794706454 3.194258652 3.2127167138 
-0.94209571149 -5.9953846868 4.0417580812 -3.1459263543 -5.6953361742 -5.2732076514 6.2430724366 6.6150937154 6.37694623 
6.0734946746 -8.8091267622 4.5224812194 -4.2484133113 1.4451303128 -7.1340581944 -1.3126887621 -1.5933435296 -8.5808418866 
2.37625898 0.37309958445 2.2382960732 -9.0389518201 8.1834928627 -0.11774995217 -2.2880695441 8.4206563634 3.4255410336 
-0.27297325534 -1.8683012958 -5.4511892541 5.2051522944 -0.25776038504 -6.9265593433 3.7401631443 3.3889748237 -3.4990328221 
7.2908870865 -1.7269549727 7.9185584326 -6.0425359539 -0.12781825013 -0.62835813014 1.0444950739 -6.6291410053 0.97597783054 