# vtk DataFile Version 5.1
vtk output
ASCII
DATASET POLYDATA
POINTS 356 float
0.539654 0.529928 0.281365 0.599032 0.600508 8.90862 0.71186 8.56042 0.361334 
0.746127 8.70359 8.88883 8.91751 0.686173 0.290493 8.79174 0.797657 8.94792 
8.77856 8.49434 0.442173 8.77312 8.4422 8.92144 0.185535 0.333777 1.39997 
-0.247899 -0.0636789 2.54111 -0.391725 -0.263668 4.17625 -0.349741 -0.168852 5.7564 
-0.219637 0.0689874 7.1496 0.09569 0.354264 8.08254 0.165588 1.37672 0.2862 
-0.0814222 2.48592 -0.47405 -0.391261 4.15246 -0.358789 -0.170625 5.79242 -0.123995 
-0.203793 7.22207 -0.0778608 0.549366 8.06401 -0.0649699 0.482401 8.66578 1.3263 
0.00993281 8.83608 2.77003 -0.0849134 8.85561 4.20618 -0.0997568 8.93621 5.69294 
0.231237 8.71646 7.00819 0.525018 8.73252 8.03741 0.234119 1.44802 8.80493 
0.10566 2.48456 9.40952 -0.165334 4.0887 9.24925 -0.155047 5.8891 9.17827 
0.0691667 7.21991 9.02408 0.465825 8.1751 9.21392 9.24453 0.184503 1.05282 
9.51537 -0.267318 2.39648 9.58342 -0.424325 4.0947 9.53351 -0.359169 5.75622 
9.41924 -0.146365 7.2631 9.28929 0.203054 8.46988 8.98636 1.45261 0.31292 
9.1703 2.58672 -0.259156 9.28113 4.17606 -0.207907 9.23212 5.83782 -0.261517 
9.34532 7.11255 0.0362704 8.79416 8.0181 0.181699 8.9039 8.77042 1.34765 
9.10956 8.89284 2.50879 9.27371 8.99264 4.16057 9.25554 9.0773 5.74738 
9.20508 9.00672 7.12819 9.09122 8.84351 8.31091 9.11068 1.36919 8.95127 
8.86983 2.59509 9.35859 9.2077 4.15668 9.17263 9.28329 5.77279 9.30991 
9.13854 7.0558 9.02179 8.93629 7.94096 9.11255 1.50194 0.658982 -0.0119587 
2.62188 -0.109678 -0.148619 4.4583 -0.0474251 -0.261698 5.91702 -0.0450945 -0.393288 
7.15027 0.235786 -0.0965542 8.20272 0.480132 -0.0419197 1.56598 0.772176 9.0106 
2.57491 0.026073 9.12852 4.42747 0.00712587 9.19306 5.96533 0.171528 9.13589 
7.16684 0.23451 9.10952 8.22843 0.608959 9.20249 1.42139 8.65758 -0.145852 
2.48778 9.13596 -0.124838 4.33728 9.22022 -0.35091 5.88164 9.20468 -0.337005 
7.26602 8.98557 -0.311486 8.21063 8.86859 0.0137271 1.42926 8.7413 9.3341 
2.61039 9.20912 9.35513 4.41974 9.26958 9.51646 5.90981 9.2252 9.4844 
7.24636 8.93983 9.51076 8.25121 8.80237 9.19867 -1.23645 0.137263 4.98964 
-1.33802 6.0399 1.63918 -1.10225 6.04018 7.71637 -0.566676 0.677998 7.72813 
-0.76049 0.534234 1.71276 -0.770455 3.15116 8.70583 0.12412 8.03532 8.48206 
-0.596729 8.23289 6.42154 -0.797778 3.19473 0.486558 -0.632284 8.17642 3.37534 
-0.162623 7.98538 0.606777 -1.7016 5.86162 4.9486 -1.608 2.87587 3.23314 
-1.68018 2.93786 6.61284 -0.0586821 0.750515 8.78667 -1.02684 0.213205 6.55976 
-1.08248 0.176977 3.28671 -0.104839 0.698926 0.527974 -1.00195 4.82266 8.64201 
-0.82508 6.28726 8.6468 -0.6798 7.19866 8.17329 -1.11672 7.24771 7.103 
-0.38837 8.24386 7.64916 -1.18912 4.7631 0.620668 -0.983581 6.20405 0.528654 
-1.16576 7.22541 2.54817 -0.696969 7.11248 1.26317 -0.529543 8.13202 1.89331 
-0.732566 8.31014 4.99083 -1.26385 7.25789 4.15078 -1.72186 5.92938 3.24409 
-1.31046 7.25301 5.70549 -1.66092 6.00444 6.55001 -1.60871 4.51216 2.44407 
-1.51068 3.06227 1.66451 -0.760496 1.38583 0.889218 -1.17392 1.20019 2.55516 
-1.38399 1.05137 4.15164 -1.53815 4.61794 7.23492 -1.15499 3.06911 7.76521 
-1.22845 0.994088 5.78252 -1.05254 1.10894 7.14619 -0.535826 1.37215 8.31554 
-1.84851 2.83878 4.98465 -1.73767 4.44284 5.7202 -1.92567 4.43001 4.09942 
9.69281 0.490981 4.94286 10.0263 5.83424 1.74445 9.86283 5.90728 7.74379 
9.51047 0.739922 7.90113 9.33399 0.813638 1.81275 9.73337 3.13786 8.77076 
9.24452 7.98135 8.57315 9.66971 8.12635 6.47704 9.477 3.247 0.644666 
9.6185 8.13649 3.31026 9.37541 7.93156 0.731514 10.099 5.80992 4.90764 
9.90466 3.01401 3.34431 10.0857 2.95864 6.5423 8.95354 0.992106 8.55135 
9.41158 0.614664 6.42897 9.55585 0.53057 3.30844 9.01877 0.977089 0.786049 
9.74127 4.75629 8.44469 9.62206 6.14554 8.60206 9.72982 7.09054 8.16844 
9.86235 7.09568 7.05572 9.36959 8.03772 7.65886 9.84033 4.71714 0.842648 
9.52205 6.14058 0.741331 9.88241 7.0468 2.5968 9.66125 7.02974 1.28357 
9.59473 8.0214 1.85172 9.64772 8.11463 4.989 10.0755 7.13207 4.18064 
10.0203 5.86069 3.33761 9.89092 7.06778 5.66434 10.0731 5.79332 6.48093 
10.0533 4.48349 2.53667 9.88896 2.93054 1.75899 9.64231 1.5155 1.06741 
9.93801 1.29299 2.59054 9.94052 1.16088 4.1029 10.2169 4.56107 7.1591 
9.78804 3.08783 7.70282 10.0283 1.17588 5.70913 9.89249 1.19308 7.15687 
9.54842 1.45443 8.34013 10.0856 2.85947 4.92325 10.0597 4.36172 5.70143 
10.2097 4.31088 4.18893 3.99902 -1.27333 1.54753 3.99692 -1.20123 7.96299 
8.7693 -0.838354 4.91672 8.50508 -0.0882349 7.8722 8.53746 -0.244727 1.7097 
6.74674 -0.598997 8.73311 1.49789 -0.0639288 8.63171 1.24845 -0.909572 6.53312 
6.69233 -0.623434 0.443077 1.18675 -0.903014 3.34165 1.3772 -0.182192 0.59962 
4.07827 -1.81903 4.98375 6.76106 -1.5143 3.16605 6.82454 -1.49717 6.72571 
8.50199 0.338331 8.71126 8.80427 -0.755752 6.55792 8.64695 -0.52474 3.2825 
8.43148 0.368667 0.662739 5.40473 -0.870814 8.5554 3.93395 -0.669838 8.64651 
2.70906 -0.675548 8.13169 2.63046 -1.30495 7.2236 1.30446 -0.591426 7.78078 
5.29635 -0.796517 0.658462 3.85035 -0.703725 0.458957 2.57965 -1.32276 2.43344 
2.69145 -0.721015 1.13987 1.28678 -0.734985 1.74717 1.11693 -1.10937 4.98634 
2.62371 -1.50748 4.08657 4.02014 -1.64034 3.18395 2.59807 -1.54862 5.7674 
4.05725 -1.65567 6.65937 5.41835 -1.48285 2.34998 6.7571 -1.09366 1.56994 
8.16659 -0.520393 0.739714 8.20319 -1.07403 2.34949 8.25717 -1.40421 4.02806 
5.47564 -1.43824 7.35647 6.79098 -1.10055 7.90878 8.24717 -1.40249 5.79212 
8.29172 -0.962887 7.34403 8.18841 -0.403573 8.57482 6.81341 -1.6211 4.98169 
5.5169 -1.81722 5.81637 5.46223 -1.89294 4.0594 3.90423 10.0992 1.81013 
3.88468 10.027 7.73239 8.79643 9.32009 4.90354 8.59048 9.13121 7.78968 
8.68137 9.40203 1.86929 6.76277 9.36983 8.68225 1.43905 8.89733 8.45575 
1.13379 9.42677 6.38424 6.77401 9.66786 0.577961 1.0566 9.44403 3.40658 
1.28357 9.26075 0.763879 4.04016 10.1578 4.95287 6.89683 10.0711 3.41448 
6.90018 9.81856 6.43893 8.48094 8.82698 8.5469 8.70605 9.16472 6.40299 
8.87806 9.49298 3.4501 8.86388 9.14534 0.576518 5.2978 9.74329 8.42232 
3.7606 9.38907 8.57824 2.5913 9.59809 8.19587 2.52317 9.78489 7.04067 
1.22631 9.37289 7.60527 5.28352 9.74002 0.986021 3.75494 9.76547 0.582845 
2.49745 9.93401 2.70985 2.54969 9.57071 1.23774 1.2266 9.3718 1.97629 
1.051 9.55186 4.9901 2.53333 9.79764 4.12285 4.04193 10.1056 3.36361 
2.47514 10.0595 5.6595 4.01087 10.0312 6.41909 5.4854 10.1537 2.59887 
6.95487 9.80798 1.81664 8.11388 9.40725 1.08001 8.1353 9.72233 2.60986 
8.28119 9.78033 4.15341 5.47608 9.98266 7.10987 6.89233 9.79697 7.72775 
8.33643 9.84059 5.72611 8.26952 9.70564 7.12465 8.09536 9.40315 8.47319 
7.02427 9.99987 4.93082 5.59266 10.3128 5.68613 5.46579 10.0462 4.18397 
1.63465 3.89908 -1.51713 7.8573 3.843 -1.51403 5.10607 8.99359 -1.13359 
7.95074 8.67206 -0.680386 1.8667 8.55549 -0.727687 8.66496 6.6253 -0.668502 
8.62231 1.45169 -0.292491 6.64194 1.10538 -1.0363 0.561117 6.57254 -0.74612 
3.47458 1.21968 -1.0239 0.849439 1.38506 -0.489824 4.95195 4.04678 -1.72927 
3.13931 6.893 -1.83265 6.73359 6.84075 -1.64271 8.66179 8.36806 -0.0227389 
6.60755 8.85399 -0.994213 3.39913 9.02209 -1.0423 0.947317 8.31318 -0.150417 
8.64956 5.17272 -1.18325 8.52734 3.76526 -0.706793 8.33224 2.56065 -0.947108 
7.13945 2.53837 -1.25927 7.64622 1.26315 -0.713618 0.600111 5.1787 -1.16763 
0.575729 3.70041 -0.905797 2.54829 2.53636 -1.29914 1.21474 2.61218 -0.960542 
1.98941 1.34589 -0.868844 5.10261 1.11895 -0.929323 4.19388 2.49503 -1.67087 
3.21936 3.96189 -1.88765 5.75265 2.49894 -1.68684 6.5859 3.96668 -1.85713 
2.40481 5.43277 -1.61154 1.59575 6.77086 -1.26807 1.13157 7.87652 -0.63857 
2.66707 8.06561 -1.05544 4.22415 8.2648 -1.23685 7.19318 5.38463 -1.43066 
7.9229 6.76184 -1.34401 5.90088 8.23653 -1.39015 7.25861 8.10593 -0.978951 
8.54392 7.98663 -0.573723 5.03947 6.96781 -1.61103 5.78379 5.55389 -1.94655 
4.10173 5.54116 -1.93866 1.78227 3.94149 10.0548 7.60204 3.91226 10.0213 
5.14323 8.60958 9.76279 7.86362 8.36087 9.46449 2.08467 8.36876 9.43976 
8.69239 6.61697 9.76588 8.49597 1.52773 9.33381 6.4993 1.22588 9.68169 
0.53685 6.62946 9.82047 3.50389 1.28053 9.62933 0.975616 1.48004 9.47613 
4.92958 4.04742 10.4504 3.30676 6.85069 10.1281 6.59573 6.80282 10.1242 
8.54336 8.20158 9.01969 6.44996 8.38399 9.4337 3.48857 8.61166 9.63508 
1.08057 8.21725 9.03765 8.52655 5.16708 9.79441 8.62684 3.72428 9.85978 
8.22457 2.56234 9.79452 7.03404 2.52324 10.118 7.60457 1.39968 9.51267 
0.811198 5.19167 9.88339 0.617592 3.69136 9.85762 2.62984 2.54424 10.1468 
1.35911 2.66032 9.69253 2.00848 1.37793 9.67394 5.06137 0.981239 9.8385 
4.21226 2.55305 10.1314 3.32063 4.05919 10.1699 5.71872 2.61739 10.1048 
6.53573 4.04534 10.1783 2.51714 5.39906 10.3065 1.76272 6.7021 9.96751 
1.19758 7.86975 9.63697 2.73177 8.04672 9.99752 4.30549 8.11721 9.97488 
7.20845 5.42277 10.3201 7.69563 6.71457 9.93369 5.87921 8.11889 10.0209 
7.19641 8.15137 9.98722 8.36459 7.85023 9.6584 5.04483 6.96246 10.4016 
5.73794 5.49686 10.2672 4.16657 5.56284 10.2588 
POLYGONS 709 2124
OFFSETS vtktypeint64
0 3 6 9 12 15 18 21 24 
27 30 33 36 39 42 45 48 51 
54 57 60 63 66 69 72 75 78 
81 84 87 90 93 96 99 102 105 
108 111 114 117 120 123 126 129 132 
135 138 141 144 147 150 153 156 159 
162 165 168 171 174 177 180 183 186 
189 192 195 198 201 204 207 210 213 
216 219 222 225 228 231 234 237 240 
243 246 249 252 255 258 261 264 267 
270 273 276 279 282 285 288 291 294 
297 300 303 306 309 312 315 318 321 
324 327 330 333 336 339 342 345 348 
351 354 357 360 363 366 369 372 375 
378 381 384 387 390 393 396 399 402 
405 408 411 414 417 420 423 426 429 
432 435 438 441 444 447 450 453 456 
459 462 465 468 471 474 477 480 483 
486 489 492 495 498 501 504 507 510 
513 516 519 522 525 528 531 534 537 
540 543 546 549 552 555 558 561 564 
567 570 573 576 579 582 585 588 591 
594 597 600 603 606 609 612 615 618 
621 624 627 630 633 636 639 642 645 
648 651 654 657 660 663 666 669 672 
675 678 681 684 687 690 693 696 699 
[...]
CELL_DATA 708
SCALARS scalars double
LOOKUP_TABLE default
-5.0808282123 -8.6232261771 -4.5920980276 -9.3393313454 -5.0881226167 -9.2441474305 -7.1340836427 -5.6901318519 -9.083760676 
-5.9001935739 -8.5114701733 -6.7879766966 -9.028354493 -4.9385172817 1.1509574157 0.69164851594 -0.31509750853 -0.55653097774 
1.8611450219 0.35698712835 1.815361621 4.6743342938 5.347256163 4.1377481703 5.7090002418 8.3282826706 8.4942876102 
5.8853663722 6.4950666859 2.9689142569 2.6010313236 4.3685496922 4.1825561961 -1.1833131021 -1.3453471018 1.173750636 
-1.5407190864 1.9264556625 0.37248137762 3.8913805116 5.3629159872 3.2879713405 3.5723076826 6.6853772316 7.9196512504 
7.8451642947 7.773501448 6.612885859 3.2079665726 4.4563806225 4.801679253 0.10802663923 6.3599813669 5.4966867915 
6.4511876089 7.2993402005 5.2908937999 6.9673505319 7.3548714337 2.9178423692 3.1136462809 3.641663756 5.2645750068 
2.7045662644 2.0174968936 3.4848676755 2.8452722374 5.3228880804 5.0818095477 4.6643031405 0.58788504396 -1.6370838823 
-0.32113665336 0.50925918868 -5.7059247027 -1.6723756673 -6.4875405107 -1.9246685694 -0.80596168859 -4.7584385676 -5.3900627181 
-1.9079726113 -2.5085792015 -2.1704345915 -1.3399443131 -2.9122800832 1.7332472767 -0.79448411918 -1.1223296411 -1.0295262254 
-2.8272684231 -5.5604148966 -6.1384806352 -1.1778381785 -2.3876783411 -5.434491178 -3.3797745884 0.46392771703 2.0502572179 
-2.0329950242 -1.8053087052 -1.8243138594 -0.75886886152 -2.7132178477 -1.8861849068 -2.8590341925 0.37037656437 1.3064694777 
0.37390065572 -0.22002486135 -0.92862565619 1.44463483 0.51623730961 0.26984545997 0.87211024692 -1.2417862252 0.22191769379 
0.15859303747 -1.7785785146 3.0019531515 -3.3821735234 0.8026188298 -3.0772266304 -1.5105671937 -2.1915210192 -2.091181234 
-0.044556068806 -1.5559646983 0.70735887433 -1.4202154718 1.698071929 -0.32331752875 0.53846856564 0.26720353028 -0.26709142914 
1.2785328229 2.0858847448 -0.85170674875 0.6889252851 4.2027833774 3.1445307984 4.0447655135 4.3040971277 2.9636393516 
2.3217224869 3.1221099646 2.1590016404 1.4406546122 0.12557757078 1.8174092774 1.6771543633 -0.5764965668 0.10114305495 
1.7282047991 -1.7034248107 0.1066973293 1.8442194507 2.2953134739 2.5746433733 1.8081829749 1.6035048618 4.6751672469 
5.878390376 6.2198764054 5.877311345 5.1687782715 1.6186746281 1.1397401942 -0.019433611852 -0.22010554885 3.7462898639 
4.8449846024 3.8846393168 4.3390022595 3.1386013935 3.8300491898 3.8394886261 1.1661332262 -0.099812689265 0.38479957832 
1.9253135877 1.5270683075 0.90513784446 1.523340082 0.87201304711 2.1637944934 4.0650537434 3.0351586128 -0.57915207388 
-1.7239894047 -1.0302508908 -0.39717568132 -4.0694010423 -0.84017887349 -2.8537220906 0.19356449059 -4.9672571934 -2.7943700429 
-2.1894414967 -4.8003255875 -5.8991596657 0.24266380312 0.052509531352 -0.72429570978 1.0273137977 -1.7885724528 0.053730692241 
-1.3499103693 -0.75888275511 -2.4960775708 -2.9909880248 -6.9201712209 -2.5474965524 0.34147676772 -2.4537008121 -4.8451485414 
-6.6441901134 -1.2329910489 -0.18776290933 -0.2932117701 -3.9711523457 -0.33064341952 -0.28501521525 -0.59071897503 -0.42334590537 
1.9259370244 -0.18222641916 0.52854804994 -1.5941845151 0.9583299601 0.21936226248 0.73982888245 0.26603118478 -1.4805316055 
0.17829879202 -0.34548855963 -8.6844747105 -5.3141214025 -7.9171905459 -7.8536476779 -7.7216627776 -8.6949093048 -9.4823426897 
-6.7384040148 -9.76949648 -6.5410225229 -9.0878382841 -1.9370818641 -8.8751811645 -8.1340166873 -5.2676112857 -7.9065645081 
-6.1234354883 -4.288245581 -4.7849648487 -6.127988579 -5.2007394207 -7.8633669166 -8.1568631145 -8.9300898187 -7.9907234802 
-8.5133663717 -7.6686821569 -7.6826999285 -7.2119696088 -3.5923349369 -7.7686215708 -8.1517243701 -8.1096652563 -4.1108712803 
-6.193417971 -5.9490955676 -8.8560377634 -8.1704516743 -7.9748779868 -7.5593995241 -8.731692767 -9.2621718129 -8.8043262895 
-8.866245857 -8.8731777871 -7.1894049095 -5.6266460893 -7.7927795707 -7.0697739472 -8.8479607193 -8.9005391844 -8.737742107 
-8.8471308555 -7.3200622406 -4.8896759403 -8.663769991 -8.5189956123 -9.3426358489 -8.9306425448 -8.55164704 -9.7102018828 
-9.8378465091 -9.812432574 -9.242571267 -9.8696252842 -9.4068300663 -9.7080404278 -9.8074221953 -9.2375153078 -9.3628292093 
-9.6224630602 -9.2177463701 -9.203942978 -9.5853354952 -9.2433705438 -6.0946255213 -8.4077291983 -9.6340615058 -2.9551115713 
-8.288339144 -7.9629763976 -4.8788557206 -4.8807225422 -9.5609610495 -9.1063433385 -9.2766541551 -9.0271783635 -9.4167515129 
-8.4733203421 -9.0153052813 -9.3755166736 -7.5997644581 -5.401846252 -7.6407712639 -4.7184440526 -2.7240761611 -3.6508833958 
-6.2256522664 -4.018950409 -8.3769491356 -9.2643456151 -8.7660597463 -6.7519346902 -9.912892127 -9.9219936682 -9.8872530317 
-9.6821506332 -9.4437909316 -9.9387137028 -9.7037401951 -9.6468797026 -9.8876567411 -9.756124586 -9.7216573798 -9.9875022504 
-9.69025203 -9.7899479647 -9.84271309 8.7110229056 7.6035177614 7.7897473645 9.7289415892 7.6167407505 8.5153737826 
9.1891321152 7.678262146 5.0998705488 7.4382021774 4.6947191168 7.8306578246 0.76306890614 -1.081386468 7.6762579423 
8.0085576468 9.47395806 9.1231291044 9.2082051364 9.8620385249 9.0621347969 9.5201922445 7.7578337602 9.5877237274 
9.5823127182 8.0938939962 7.7633553501 9.7228827134 7.6508696047 9.1695801598 8.0096169053 8.4516113098 9.4633522679 
9.7142291115 8.2154347233 8.2823977954 9.5850106732 9.1444553776 9.2889228746 8.894345918 9.3442170319 9.2893859059 
9.7447735615 9.3147399507 8.7520730164 7.6395551843 6.9719033426 6.9257323348 8.0489044854 8.8539215608 9.4727810221 
9.3649527939 9.1309734053 8.2890149834 7.6255346502 9.0223013897 8.3802912706 9.5572644249 8.6918508572 8.6700905509 
9.9358942913 9.7597476584 9.8357952345 9.2352062253 9.9604714356 9.8559419137 9.7717013048 9.7538000602 9.2011685847 
9.7720194106 9.5071199324 9.6123063527 9.9325026914 9.7682840033 9.6205727495 8.7277749267 6.082337352 9.7019620744 
8.9288287374 7.3672817368 7.8235079964 9.2835566626 9.3861099747 9.7265824751 9.5993604901 9.5826316747 9.760695416 
9.9231328779 8.940682895 9.8148418588 9.9467677118 7.1187132053 7.4341265644 5.4755778002 8.9743581685 3.3494511044 
6.709047853 7.2875062853 5.5722039253 9.0982643475 9.971376867 9.5723534854 7.060853092 9.913543446 9.8131381476 
9.8834465536 9.4595446892 9.9952443133 9.8705713888 9.7293379645 9.975109251 9.976365544 9.9942501624 9.9770449288 
9.8472011605 9.9889913887 9.5009915016 9.7613347213 5.5366455917 6.4190920615 4.900343206 9.3218485603 6.6545156423 
9.6358567244 9.0997942059 6.0169053601 9.7966725948 6.6236417456 8.2944868924 5.9052820237 6.4708999473 6.7749509653 
5.312881722 -2.7615770925 -2.9675586407 1.1020841981 2.1451627169 -0.12011394047 0.074976414391 -3.1432042906 -3.7406730732 
-2.5648982371 -2.9658686837 -5.978380837 -5.6728297752 -4.0740476258 -3.9433547171 -3.7040063767 0.027376639569 -2.7526082373 
0.51676198629 -0.61789106424 0.092667319847 2.8058267411 -1.4599083809 1.757570508 1.9206572025 -1.3866796657 -3.1434636646 
-2.855408926 -2.575725486 -2.222473606 -5.3435178196 -6.7989090587 -3.1068904974 -6.3255486409 -5.4627297871 -4.849422988 
-2.5563787438 -2.2406318976 -1.4968685965 -0.34032431847 -5.2820213729 -4.5494697495 -6.0620772392 -3.4255899993 -5.0453502138 
-4.6201231596 -2.8842337855 -0.83633961041 -2.8293097895 -2.4521236155 -0.6925709314 -3.0254308878 -2.714317693 -0.32647585346 
-4.5620097072 -4.625175063 -4.7835945725 0.64467324103 2.4277352463 0.31802976807 0.95850215067 4.8455810931 5.7442364543 
4.9864237638 5.4989598371 4.6656109564 6.3492238762 1.1239550334 1.772194889 4.2014870833 2.7653492349 3.8077888188 
1.322220605 -0.65665262903 2.3934359069 -0.24809410689 3.4142229733 7.101080458 5.9843195024 2.4450407271 1.1081459925 
5.8646714046 1.2027309285 1.8768848317 1.6835546744 1.1092029096 3.6670931319 3.8872996099 2.3919291084 1.7499800069 
3.3138582228 2.2656417506 -0.29400634104 1.6843515863 -0.97519003347 1.2687988721 -0.55198202274 -0.85024386212 0.5537854885 
0.76488222965 -1.407630535 1.5423516291 2.3043165932 2.2774580176 4.4258997459 -0.53453193123 4.8951154624 -0.84158709734 
4.3675552156 3.7932733404 2.6742456951 3.7828376772 3.048760484 3.8324102683 1.4665044324 3.5752702168 4.2220544842 
-1.1442765157 0.81139243791 0.56115948295 0.81592942093 2.2067335243 -0.48523032349 -0.98771946162 -0.9570027824 -0.40567088429 
-3.4425394788 -3.849049235 -3.5452317544 -3.8624197033 -3.3925713657 -2.5716555853 -2.0060356688 -1.8909675302 -1.0260627065 
-2.1285506267 -2.3608101957 -2.618558701 1.9999050164 4.2342391028 0.047342428633 -0.85746672283 0.35571562446 0.62644692511 
-1.4815047596 -3.7715693524 -1.1424566484 -1.8845143074 -3.4729042972 -6.5113387748 -1.9208126274 -5.4464849918 -4.8974277177 
-3.7293070398 -1.1206622431 -2.3567661052 -2.7683511044 -0.26851191558 -4.6170823092 -5.2250637615 -4.7685560625 -3.7236252411 
-4.4576143853 -5.9129799964 0.19530233862 -1.2634384341 -0.19693990346 -3.0691089505 -1.4469143799 0.088388875523 -0.43891613022 
-2.209138666 -2.1428152284 -2.7306141775 -1.7025325577 -0.49289960699 0.20485509062 1.8474845131 1.0478121601 0.30674699751 
3.2101921595 1.1293903141 8.6903089405 4.8727957632 3.679291194 5.5195760585 6.9416687375 0.56151940379 2.1191983143 
1.5361927646 -0.92023092952 2.1754758482 0.0041083485361 1.2647326245 0.90753494001 3.375768038 4.3568046143 9.1578712267 
2.5358609163 2.9892515276 6.1638003187 3.6178045946 7.6107687099 1.3207606328 0.23209602829 0.63590249743 4.3359098443 
1.7975784201 2.4648591554 3.3068418544 1.2776678417 -1.6132223245 0.31448433683 -0.82950651078 1.1252975886 0.38203620233 
-1.3875752991 -0.79559067992 1.2544233087 -0.033869299839 -0.073509826056 -0.95686028576 
