# vtk DataFile Version 5.1
vtk output
ASCII
DATASET POLYDATA
POINTS 254 float
9.8873 0.204033 10.9194 -2.42717 2.57477 -2.47097 3.15565 -3.51386 0.890692 
-19.3004 2.32361 6.40182 -6.92983 -0.983891 2.54233 -1.14457 -11.2926 0.158799 
0.367408 -0.456491 -9.35099 -0.90333 -1.44313 -2.7741 -4.08286 -7.0712 6.85888 
-18.5996 -13.7565 0.602476 -8.95347 -22.18 13.0592 -10.6161 -9.4302 4.81192 
-10.0736 11.4494 -2.05147 -6.24978 -7.30968 -11.2792 -19.1496 9.01311 -10.5712 
0.254967 4.34207 -15.0361 -16.0698 3.99692 8.56208 -11.4346 6.90931 -5.10453 
-22.0901 10.795 8.23389 -0.312584 1.079 -1.08652 -5.87344 12.8036 12.6955 
-9.83066 0.0312209 -6.97621 -19.5841 10.8152 6.86555 -0.801635 -3.26146 1.97943 
3.68588 -7.85709 12.9387 13.8341 -18.1651 -4.30147 -4.59999 -18.5431 7.48517 
9.1254 -16.7869 18.4886 4.86435 14.0821 -6.66669 11.0551 -5.63494 -13.6484 
-4.67601 7.72706 -16.2074 13.3245 13.4208 -15.766 -3.06053 1.78074 5.47937 
0.588405 1.69481 19.7787 1.4782 3.10353 -8.3627 3.89174 2.11949 17.426 
7.87535 3.90013 -5.70717 2.52159 17.3932 2.09357 2.38007 -5.16225 0.69614 
-0.186057 14.7978 7.4732 13.177 -1.68095 -4.89608 0.83827 -13.5513 -17.7861 
16.9761 -6.41763 -14.096 3.19788 -13.867 -5.33657 12.4389 -9.8863 4.74918 
-3.96293 -13.9901 -5.37237 7.70564 -12.581 8.61281 18.8405 -2.17903 -0.912948 
7.12441 8.8068 -11.3433 12.4204 -7.60151 -0.998759 2.55625 9.50295 -17.8778 
16.2227 5.15675 -13.5304 0.404791 0.00714681 2.04737 16.2717 -0.598656 3.33746 
-7.87534 -2.04435 1.02091 17.0235 4.95073 2.21704 -3.77772 14.7412 2.83287 
7.84834 8.4199 20.4398 -3.24477 6.61701 20.2522 4.72495 -2.75861 0.560574 
4.8558 16.0926 -8.09753 9.95278 6.02658 4.14623 6.97625 7.29522 6.66529 
0.79887 8.55039 -0.470256 -4.67748 17.3452 1.54636 7.03097 -2.01127 4.76664 
7.0271 15.8319 13.1949 -3.14185 12.7639 -11.4679 14.4245 10.0544 2.81675 
-5.37947 3.89096 -1.13177 0.962478 16.1718 -4.6252 -11.3186 -6.37194 11.2794 
3.57906 16.2739 9.88523 3.83051 0.647532 14.1684 -7.32825 9.20212 0.0364447 
9.88872 10.8558 6.51709 7.21718 -5.11417 -7.62684 -5.99052 2.10296 11.9848 
6.38123 0.325696 -2.23028 -5.94875 -4.62926 -9.20377 -10.119 0.0200294 3.80191 
-5.87963 5.92468 20.17 11.9399 1.61708 22.2886 1.05756 -7.41951 2.06358 
0.982217 -8.85886 16.2234 -10.0931 1.60916 6.25235 4.18078 -3.68612 15.8133 
-10.7529 15.3011 5.59 -11.061 -0.295873 0.394671 12.3266 17.9865 -7.67939 
22.6299 6.2279 15.5363 11.4775 21.9753 9.61969 5.89639 15.4647 10.0191 
13.7432 -5.68303 6.2825 20.2837 -6.05775 7.371 16.8171 9.93176 10.107 
13.5827 2.9859 -3.91567 13.336 14.9185 -0.605549 7.27725 7.22854 20.4544 
13.836 -2.10304 5.0945 2.41833 8.66412 3.5845 19.7272 15.7624 7.55428 
11.8158 6.63346 -2.95992 2.21931 13.3054 -2.11559 9.3868 -7.14856 6.63676 
21.7989 5.40763 16.5291 11.7087 9.75062 3.91669 22.9374 10.3978 1.2372 
3.52552 11.7335 -0.25202 13.8575 -1.55048 -9.93653 17.3336 16.0728 9.01912 
-1.45232 6.79183 7.74252 19.7719 -4.74929 -10.3295 3.35543 0.175398 -3.92932 
3.22876 6.4709 21.6587 22.372 3.5139 18.8786 5.74372 2.08817 5.86014 
17.3896 -3.54463 6.19962 4.2134 -0.309501 12.6762 9.44623 14.7775 -2.02052 
-4.17072 2.40867 7.95909 2.47706 -10.9788 -1.97715 6.40766 8.99161 1.55931 
-1.06939 7.74775 17.4827 4.8511 -1.9356 10.2472 -14.7331 3.24027 0.647737 
15.5524 -10.2838 0.957926 15.5434 11.1067 9.61472 13.3992 9.8863 2.53795 
9.71558 -0.979384 -0.919158 -3.99123 -13.0176 9.49836 9.20788 13.328 5.24259 
-4.66339 5.37474 16.2599 4.10672 -8.01185 -0.0663941 -5.48523 9.91947 -7.20485 
1.54401 -8.36948 -1.82165 -0.946144 8.42149 8.59394 -0.746734 -13.9881 0.179879 
2.54853 7.01172 10.9677 -4.91147 -4.93232 2.06318 0.377659 4.43054 -5.46085 
8.6475 -0.573778 15.0025 16.3913 -3.46821 -6.93287 21.1836 -12.2988 7.03902 
12.2937 4.20474 5.79696 8.258 5.50656 -11.2917 -6.16383 -0.65953 -1.62082 
-4.75668 -8.08072 16.5829 11.4694 13.3915 18.4235 3.23007 2.11335 8.95028 
17.5448 -0.60742 12.1847 2.14011 0.549343 11.0741 13.238 -6.73863 -3.32704 
-4.5771 0.245798 -0.484391 6.95092 -1.61832 18.6291 11.6633 7.52731 6.33332 
2.16885 16.7837 16.5891 2.01086 19.5784 8.11568 5.22346 6.51273 3.53083 
16.2761 3.84089 -2.12009 12.3961 2.55537 0.551863 -4.0926 18.5295 14.8812 
4.83918 8.47157 -4.06621 3.73994 9.20943 1.43228 2.48566 2.65718 17.9068 
-11.7249 14.3299 13.9063 -0.0408787 4.08484 0.0190461 2.489 19.2973 -1.56662 
-0.7842 3.70709 0.935453 -9.91817 11.0848 -4.86494 -5.64219 3.26813 15.2765 
1.9187 16.2572 12.6422 12.2178 26.5604 6.16804 0.121501 3.57017 -3.33626 
15.3205 13.0815 16.6656 7.03156 14.0868 -14.6269 12.8208 24.1981 -1.7096 
10.7564 4.24794 0.0707633 14.0566 14.5526 13.5197 -7.83002 10.7244 3.1099 
11.9833 25.5361 5.09384 11.4007 16.3796 22.2789 8.05904 3.55337 10.2295 
16.4931 16.9005 6.47582 0.62645 12.0391 3.02353 15.7588 17.2121 8.76264 
6.03601 -1.47863 5.10578 -4.86622 10.6028 -1.27471 10.3679 7.21527 2.80032 
19.3645 0.438433 6.38657 11.1884 5.13619 -2.1286 1.62573 -8.07632 8.06447 
0.111866 13.6334 -8.94605 10.1874 17.9637 6.35472 3.89211 13.8634 9.92678 
-1.10204 4.50517 0.928897 0.308238 -0.400834 -1.91912 4.73881 9.00522 15.8093 
11.6523 -4.80002 8.07065 -7.29469 2.29216 -1.5585 -7.38543 3.12582 2.7958 
1.20357 7.55986 -12.2459 -2.90578 -9.30373 -5.74427 2.49056 1.25739 -14.1063 
12.3504 7.48776 9.57075 6.19592 -8.55566 -1.49388 -3.54016 -2.53107 3.72369 
15.4832 10.3646 -3.01114 -5.0027 14.0106 6.12054 -7.11099 25.6718 -2.43556 
4.76183 13.5073 5.14542 -7.81964 3.59301 2.77108 -2.69197 -10.7934 -6.79378 
16.1506 -3.38991 -9.20258 17.2831 12.3487 11.5344 5.7814 3.55009 1.83341 
12.7876 17.1325 -1.5943 8.29275 4.04917 3.31697 -2.54951 12.2671 -8.13279 
-1.7162 -4.31936 0.617891 19.2149 4.33563 0.913089 4.28165 0.421681 2.59491 
15.1307 4.38853 19.7607 4.17336 6.58527 14.4467 6.17118 -10.9911 18.1605 
-4.81819 10.8291 5.88456 2.97586 11.5205 0.425146 14.5598 -4.61299 17.0928 
-5.09332 5.10659 9.75032 0.588033 2.68092 6.85138 18.8236 2.66368 1.80754 
13.5171 -8.73947 14.84 -2.34248 13.7446 5.28994 -4.69801 1.10247 19.6202 
-6.81437 -9.08284 6.09913 10.9974 4.77622 6.21099 -1.89444 1.11807 -1.17208 
15.5639 4.55879 9.19004 7.40685 15.2362 21.7311 5.67254 -8.79722 16.1915 
15.7778 15.7128 12.4392 -14.1062 2.23402 13.8169 3.01112 7.51847 23.5522 
-7.18735 13.758 10.788 8.13085 19.4904 14.824 1.62228 -6.4487 13.5512 
2.44154 10.5368 23.8092 21.861 12.1933 16.2922 10.1435 9.46528 3.34427 
6.10783 16.7929 18.0891 2.04167 0.153449 11.6584 9.16921 16.2961 17.0353 
5.10155 5.10649 -3.78179 1.9262 -6.75891 11.1567 
POLYGONS 505 1512
OFFSETS vtktypeint64
0 3 6 9 12 15 18 21 24 
27 30 33 36 39 42 45 48 51 
54 57 60 63 66 69 72 75 78 
81 84 87 90 93 96 99 102 105 
108 111 114 117 120 123 126 129 132 
135 138 141 144 147 150 153 156 159 
162 165 168 171 174 177 180 183 186 
189 192 195 198 201 204 207 210 213 
216 219 222 225 228 231 234 237 240 
243 246 249 252 255 258 261 264 267 
270 273 276 279 282 285 288 291 294 
297 300 303 306 309 312 315 318 321 
324 327 330 333 336 339 342 345 348 
351 354 357 360 363 366 369 372 375 
378 381 384 387 390 393 396 399 402 
405 408 411 414 417 420 423 426 429 
432 435 438 441 444 447 450 453 456 
459 462 465 468 471 474 477 480 483 
486 489 492 495 498 501 504 507 510 
513 516 519 522 525 528 531 534 537 
540 543 546 549 552 555 558 561 564 
567 570 573 576 579 582 585 588 591 
594 597 600 603 606 609 612 615 618 
621 624 627 630 633 636 639 642 645 
648 651 654 657 660 663 666 669 672 
675 678 681 684 687 690 693 696 699 
702 705 708 711 714 717 720 723 726 
729 732 735 738 741 744 747 750 753 
756 759 762 765 768 771 774 777 780 
783 786 789 792 795 798 801 804 807 
810 813 816 819 822 825 828 831 834 
837 840 843 846 849 852 855 858 861 
864 867 870 873 876 879 882 885 888 
891 894 897 900 903 906 909 912 915 
918 921 924 927 930 933 936 939 942 
945 948 951 954 957 960 963 966 969 
972 975 978 981 984 987 990 993 996 
999 1002 1005 1008 1011 1014 1017 1020 1023 
1026 1029 1032 1035 1038 1041 1044 1047 1050 
1053 1056 1059 1062 1065 1068 1071 1074 1077 
1080 1083 1086 1089 1092 1095 1098 1101 1104 
1107 1110 1113 1116 1119 1122 1125 1128 1131 
1134 1137 1140 1143 1146 1149 1152 1155 1158 
1161 1164 1167 1170 1173 1176 1179 1182 1185 
1188 1191 1194 1197 1200 1203 1206 1209 1212 
1215 1218 1221 1224 1227 1230 1233 1236 1239 
1242 1245 1248 1251 1254 1257 1260 1263 1266 
1269 1272 1275 1278 1281 1284 1287 1290 1293 
1296 1299 1302 1305 1308 1311 1314 1317 1320 
1323 1326 1329 1332 1335 1338 1341 1344 1347 
1350 1353 1356 1359 1362 1365 1368 1371 1374 
1377 1380 1383 1386 1389 1392 1395 1398 1401 
1404 1407 1410 1413 1416 1419 1422 1425 1428 
1431 1434 1437 1440 1443 1446 1449 1452 1455 
1458 1461 1464 1467 1470 1473 1476 1479 1482 
1485 1488 1491 1494 1497 1500 1503 1506 1509 
1512 
CONNECTIVITY vtktypeint64
20 21 82 22 63 21 65 57 64 
58 65 66 64 66 65 23 3 66 
19 18 58 3 19 66 66 19 58 
22 23 64 64 23 66 63 22 57 
57 22 64 67 13 77 14 13 67 
69 56 68 70 68 59 69 70 15 
68 70 69 16 2 70 70 59 16 
17 16 59 2 15 70 15 14 69 
56 14 67 69 14 56 71 17 59 
58 18 71 71 18 17 72 59 68 
73 68 56 60 72 73 68 73 72 
65 58 74 75 74 60 57 65 75 
74 75 65 72 60 74 71 74 58 
59 72 71 74 71 72 76 56 67 
61 76 77 67 77 76 13 12 77 
12 0 78 80 61 79 79 9 80 
8 78 0 9 79 8 78 8 79 
77 79 61 78 77 12 79 77 78 
63 57 81 82 81 62 63 82 21 
81 82 63 84 62 83 10 84 83 
80 10 83 84 10 11 1 20 85 
85 20 82 11 85 84 85 11 1 
62 84 82 85 82 84 10 80 9 
86 83 62 61 80 86 83 86 80 
87 62 81 75 81 57 60 87 75 
81 75 87 76 61 88 73 88 60 
56 76 73 88 73 76 87 60 88 
86 88 61 62 87 86 88 86 87 
36 115 37 38 37 96 98 97 90 
91 99 98 97 98 99 39 99 7 
35 91 34 7 99 35 99 91 35 
38 97 39 97 99 39 96 90 38 
90 97 38 100 110 29 30 100 29 
102 101 89 103 92 101 102 31 103 
101 102 103 32 103 6 103 32 92 
33 92 32 6 103 31 31 102 30 
89 100 30 102 89 30 104 92 33 
91 104 34 104 33 34 105 101 92 
106 89 101 93 106 105 101 105 106 
98 107 91 108 93 107 90 108 98 
107 98 108 105 107 93 104 91 107 
92 104 105 107 105 104 109 100 89 
94 110 109 100 109 110 29 110 28 
28 111 4 113 112 94 112 113 25 
24 4 111 25 24 112 111 112 24 
110 94 112 111 28 110 112 111 110 
96 114 90 115 95 114 96 37 115 
114 96 115 117 116 95 26 116 117 
113 116 26 117 27 26 5 118 36 
118 115 36 27 117 118 118 5 27 
95 115 117 118 117 115 26 25 113 
119 95 116 94 119 113 116 113 119 
120 114 95 108 90 114 93 108 120 
114 120 108 109 121 94 106 93 121 
89 106 109 121 109 106 120 121 93 
119 94 121 95 119 120 121 120 119 
47 46 148 45 129 46 131 123 130 
124 131 132 130 132 131 44 1 132 
11 10 124 1 11 132 132 11 124 
45 44 130 130 44 132 129 45 123 
123 45 130 133 42 143 41 42 133 
135 122 134 136 134 125 135 136 40 
134 136 135 8 0 136 136 125 8 
9 8 125 0 40 136 40 41 135 
122 41 133 135 41 122 137 9 125 
124 10 137 137 10 9 138 125 134 
139 134 122 126 138 139 134 139 138 
131 124 140 141 140 126 123 131 141 
140 141 131 138 126 140 137 140 124 
125 138 137 140 137 138 142 122 133 
127 142 143 133 143 142 42 43 143 
43 4 144 146 127 145 145 25 146 
24 144 4 25 145 24 144 24 145 
143 145 127 144 143 43 145 143 144 
129 123 147 148 147 128 129 148 46 
147 148 129 150 128 149 26 150 149 
146 26 149 150 26 27 5 47 151 
151 47 148 151 27 5 27 151 150 
128 150 148 151 148 150 26 146 25 
152 149 128 127 146 152 149 152 146 
153 128 147 141 147 123 126 153 141 
147 141 153 142 127 154 139 154 126 
122 142 139 154 139 142 153 126 154 
152 154 127 128 153 152 154 152 153 
55 181 54 53 54 162 164 163 156 
157 165 164 163 164 165 52 165 3 
19 157 18 3 165 19 165 157 19 
53 163 52 163 165 52 162 156 53 
156 163 53 166 176 50 49 166 50 
168 167 155 169 158 167 168 48 169 
167 168 169 16 169 2 169 16 158 
17 158 16 2 169 48 48 168 49 
155 166 49 168 155 49 170 158 17 
157 170 18 170 17 18 171 167 158 
172 155 167 159 172 171 167 171 172 
164 173 157 174 159 173 156 174 164 
173 164 174 171 173 159 170 157 173 
158 170 171 173 171 170 175 166 155 
160 176 175 166 175 176 50 176 51 
51 177 6 179 178 160 178 179 33 
32 6 177 33 32 178 177 178 32 
176 160 178 177 51 176 178 177 176 
162 180 156 181 161 180 162 54 181 
180 162 181 183 182 161 34 182 183 
179 182 34 183 35 34 7 184 55 
184 181 55 184 7 35 35 183 184 
161 181 183 184 183 181 34 33 179 
185 161 182 160 185 179 182 179 185 
186 180 161 174 156 180 159 174 186 
180 186 174 175 187 160 172 159 187 
155 172 175 187 175 172 186 187 159 
185 160 187 161 185 186 187 186 185 
31 30 214 29 195 30 197 189 196 
190 197 198 196 198 197 28 4 198 
43 42 190 4 43 198 198 43 190 
29 28 196 196 28 198 195 29 189 
189 29 196 199 14 209 13 14 199 
201 188 200 202 200 191 201 202 12 
200 202 201 40 0 202 202 191 40 
41 40 191 0 12 202 12 13 201 
188 13 199 201 13 188 203 41 191 
190 42 203 203 42 41 204 191 200 
205 200 188 192 204 205 200 205 204 
197 190 206 207 206 192 189 197 207 
206 207 197 204 192 206 203 206 190 
191 204 203 206 203 204 208 188 199 
193 208 209 199 209 208 14 15 209 
15 2 210 212 193 211 211 49 212 
48 210 2 49 211 48 210 48 211 
209 211 193 210 209 15 211 209 210 
195 189 213 214 213 194 195 214 30 
213 214 195 216 194 215 50 216 215 
212 50 215 216 50 51 6 31 217 
217 31 214 217 51 6 51 217 216 
194 216 214 217 214 216 50 212 49 
218 215 194 193 212 218 215 218 212 
219 194 213 207 213 189 192 219 207 
213 207 219 208 193 220 205 220 192 
188 208 205 220 205 208 219 192 220 
218 220 193 194 219 218 220 218 219 
39 247 38 37 38 228 230 229 222 
223 231 230 229 230 231 36 231 5 
47 223 46 5 231 47 231 223 47 
37 229 36 229 231 36 228 222 37 
222 229 37 232 242 22 21 232 22 
234 233 221 235 224 233 234 20 235 
233 234 235 44 235 1 235 44 224 
45 224 44 1 235 20 20 234 21 
221 232 21 234 221 21 236 224 45 
223 236 46 236 45 46 237 233 224 
238 221 233 225 238 237 233 237 238 
230 239 223 240 225 239 222 240 230 
239 230 240 237 239 225 236 223 239 
224 236 237 239 237 236 241 232 221 
226 242 241 232 241 242 22 242 23 
23 243 3 245 244 226 244 245 53 
52 3 243 53 52 244 243 244 52 
242 226 244 243 23 242 244 243 242 
228 246 222 247 227 246 228 38 247 
246 228 247 249 248 227 54 248 249 
245 248 54 249 55 54 7 250 39 
250 247 39 250 7 55 55 249 250 
227 247 249 250 249 247 54 53 245 
251 227 248 226 251 245 248 245 251 
252 246 227 240 222 246 225 240 252 
246 252 240 241 253 226 238 225 253 
221 238 241 253 241 238 252 253 225 
251 226 253 227 251 252 253 252 251 

CELL_DATA 504
SCALARS scalars double
LOOKUP_TABLE default
-5.8135770976 7.1926336702 -4.4488870848 -3.0123598209 3.089942278 5.2013881406 9.240656725 -7.3177335263 6.2150385863 
0.77290961099 -1.1855400206 9.9454761208 -8.3681370295 1.5234272778 0.007535153733 3.3096448736 -1.6104258536 3.5270988754 
4.0015308814 2.8708952417 -3.1695381125 8.5837685438 0.69144729036 9.5543431981 -9.617601056 1.938577033 -7.5535752026 
-2.0781158424 -5.3368682022 -3.9949390389 6.7246019653 0.35343965455 -2.171836886 -7.8387847178 -8.8644110457 -2.2887054328 
0.50170954033 8.5633859576 -3.9411164901 -3.3193222725 5.1072821234 -4.9628075131 6.9940492016 5.2525624426 2.5124027627 
8.2100750496 8.8101657436 5.439404471 -8.6137940643 -8.5956062385 -8.7109060661 -8.8959207647 -7.7090144865 9.3231142166 
-9.8145663333 -9.4017765924 -5.0125759985 9.592571086 3.6432887076 5.8844202471 3.7293718941 -3.4091850347 -5.4625818857 
2.3666135178 0.59940120734 -1.2016351461 5.2508611984 -1.458941177 2.5386201184 -3.3785072557 8.0134479739 -8.086442063 
-8.3633455721 9.7313543086 9.4311424652 8.537231233 -7.3424204023 -7.262164336 -4.8071430782 9.6110918934 2.5291407789 
-7.993190934 5.9079745833 -2.0711251604 -5.3477193937 0.58825587224 -9.0570127323 -0.18454522075 1.3437111698 4.6737538924 
3.8932503118 -9.6621296846 -0.44126248313 -2.195527128 -2.8987293428 -8.2562106195 4.0940457613 7.3343311821 7.128338932 
2.267843934 9.8580651709 7.1716270767 5.7354706781 2.5915857479 5.0012488111 4.8235383324 3.9909112302 -8.6091392026 
-8.0533424999 3.3568080726 0.5096094265 -0.14630397401 -6.6052987588 6.6373819299 -6.2947222217 0.075846569876 -4.3775053527 
2.5973357081 3.249447057 9.7401558017 -9.7773983491 5.18408406 1.2370012494 -2.016224448 -6.3280468248 0.16084175205 
-1.4827602478 -7.3796093216 -4.2494029574 -5.9691659608 -9.492101103 2.1644946099 -0.1040578875 1.1571096347 -4.4328448616 
1.3348768126 -8.6313914413 6.3910858725 9.8828616615 8.4698833485 6.5566360971 -9.8695395649 2.8112995405 -0.74942383897 
-4.5253312081 -7.3916650737 4.9227875132 9.5183089656 4.1570893268 -0.98911802614 1.6476605621 -8.7697053131 2.7695148035 
-5.3966296582 1.0817649896 -3.6329827559 9.3968798207 -9.6848740024 4.8254972547 -7.0866355125 8.2574274817 -0.42466817924 
0.66245347712 -4.6704551672 -6.5042881692 -1.3387032995 7.869415951 1.8395972649 3.1991293282 -5.3492935338 -3.1269802911 
0.97476124801 2.3001184128 7.5737085399 4.3222532888 4.8046320161 -6.1725311619 -9.7670925754 -3.1678902307 6.7445100442 
1.435750967 -9.6060461118 -9.0988751016 0.092236486849 8.6868051751 4.2146633797 2.8611759747 -0.57406340732 0.044034022603 
0.95605909658 7.9942188011 8.127115134 1.1917491621 -2.7808153724 0.080215593298 -5.3621256574 -8.3660069872 -8.7597931718 
-4.4117767547 -5.5372864931 2.3080451417 -3.6867185176 -6.8627879072 -4.5790079185 3.3028886861 6.5999606496 -1.5760516204 
3.6223926464 0.95756943927 -1.5107245016 -2.4850341397 8.43435514 9.0476569779 5.2343451667 8.9388657425 -3.4628134631 
6.330032454 3.0925119475 -6.4989163993 2.5600043359 2.2885338497 -4.5720697821 -2.1719795216 -5.9958985503 -1.5200598438 
5.8089552647 6.6733283143 0.13401761434 2.4339992605 5.3818922934 -6.8585924292 -6.4930163581 1.6496920554 -3.7993163811 
-3.8809924391 4.4009610602 -4.310682992 2.5871139104 -5.743771799 8.6906327834 -7.8745510013 0.95122586716 8.2147078248 
8.2032505414 -3.4336364481 9.1389760757 2.8490434957 -9.8664679694 -8.6294462066 3.5429242666 -3.3279317969 9.3075911495 
-8.2423868135 -5.3951199515 0.30533441544 4.9718922876 -7.7026908109 -5.7624268461 -4.5593461379 6.221446268 4.3739583002 
0.94287403378 -1.5976569386 7.0317763012 -7.2847745062 5.408103217 -6.8262059818 -2.3237194533 2.6214011693 7.930710514 
-2.2470855849 -6.608682724 8.8309387538 -9.8019631197 -5.9946272926 5.6204026133 -4.2504340744 4.3283554493 9.7722729003 
-4.5984256739 9.1617661229 -2.4274728019 -0.25172466457 -1.6164662989 7.4106602607 -0.37002855514 8.9753381243 -0.93313013299 
7.7697069338 -7.8084413838 3.0574563275 3.0890405965 -4.4640349561 8.2749314147 0.56941133161 -5.357444588 5.3329270879 
-9.3302806067 7.0643557836 7.0503885139 -9.4793034454 -7.5080892615 -7.8447140069 0.29930229725 -0.63085613162 -1.1518918559 
-5.029861519 -8.7951401639 7.5609087577 3.1856641611 -0.20456472787 5.6713764402 8.608229364 -6.8521894331 3.8074107069 
8.52842831 0.11995245011 7.3197586633 9.9214408154 -9.5798556569 -7.3610359776 -0.61087654102 -4.7311291791 -2.6375060678 
-1.2166735226 -6.9511677202 -6.9056454496 1.9146815867 8.0513697949 3.5364988627 0.30324929318 -7.5830139713 -6.055760496 
4.1756835488 3.1414274517 0.61390996099 9.4972287331 -7.628242273 8.4999259681 3.110263763 -5.9243667151 5.8397125498 
-3.8021520464 -6.6901761704 -3.135337174 -0.091320150635 -4.0847936607 -8.8157912054 9.396913565 -0.34852131322 5.5741456826 
-9.6237396025 5.0338915558 -1.0949873749 -0.23126159426 -8.9072573063 9.0069916603 -7.8544314766 -3.4337205631 -2.513378384 
7.0993585759 4.1794036543 1.091252725 7.4871457863 2.2667248645 -1.5233703373 2.7785416945 0.4940286907 -5.1249399863 
7.6222219041 -6.3104500878 -6.4363937544 -7.4043124624 5.805104357 8.9241465194 5.4330695798 -8.4600208616 5.3938702986 
-5.6507844448 -0.17392411562 -4.8534016134 0.42565283525 -4.8504364522 5.8806474982 -1.3658083333 -5.7589336518 7.7586843137 
2.2507631888 -5.0093908416 -2.2566547461 9.2446480101 7.8195352625 8.2503217069 -7.9628488088 -2.7559061576 -4.9518607215 
-3.7156819588 -7.003916848 -7.1351073412 -6.6487660884 9.280663117 1.5361547067 -9.4467167241 4.3337327155 5.1680242348 
-4.19343906 -0.42440969851 0.43097339743 5.1301256546 -1.5251558989 4.7580630335 -3.4429672404 3.2892353646 2.0338374889 
-2.819393582 2.7527558018 -4.7628246459 -5.8159713425 -1.2363114369 4.4956051597 3.4074807473 0.45955489317 9.9450847814 
4.1575593969 -6.9875948499 -5.7510023421 -0.89377778538 8.8858732239 -4.7269648331 0.50024101756 7.9842859177 6.3676114808 
-3.0963225101 -9.2724974673 -7.0900712068 6.4073158348 -3.9658799752 2.9015770768 -7.0731187634 -1.3528914926 -0.4634644596 
9.7344077435 -8.3294108363 0.21431129565 -4.0537282984 6.9889403182 -0.16378743173 -2.8912495838 -0.74515127123 2.5970955502 
6.3367434222 8.1388015241 -5.0437839718 -1.4782672693 2.8142520371 -0.69869085099 -2.4982337764 -4.6467140425 0.4752158994 
-6.3775679612 6.582348957 -0.89999689251 -9.143167899 7.8280378836 7.6338016565 -4.3304706121 2.2784663783 -1.9113354679 
4.7697767422 5.2131343327 5.4334333857 -4.3916929131 -4.9189462532 6.4525739079 8.4531510168 1.1552242072 -6.6412916494 
-9.4602894952 -3.6328832867 -7.6046674265 6.4115358268 7.2873166477 -0.88565774753 2.0983750012 -9.445002228 -4.1329109184 
-0.016915151984 3.6071731497 -9.1540326856 2.4912222081 -2.6601633499 3.3826203733 6.3761590572 -4.6184706141 8.4579958635 
-8.356576037 4.5040816079 -1.0850414929 -7.8277026829 4.150455777 -4.3684061723 2.2057312956 -2.367720285 -2.9276257438 

