# vtk DataFile Version 5.1
vtk output
ASCII
DATASET POLYDATA
POINTS 356 float
0.551161 0.512435 0.228169 0.643118 0.719576 8.84367 0.687462 8.53697 0.360119 
0.836345 8.52663 8.79825 8.8111 0.697247 0.286104 8.76931 0.778826 8.95004 
8.93807 8.54993 0.382085 8.72994 8.38124 8.75464 0.169208 0.299665 1.40628 
-0.360554 -0.0392716 2.54918 -0.58226 -0.393008 4.17546 -0.378305 -0.0811778 5.70213 
-0.318724 -0.0307778 7.09091 0.141136 0.291625 7.98427 0.0757596 1.31847 0.257444 
-0.0488308 2.45539 -0.429635 -0.445996 4.0935 -0.491414 -0.326602 5.83934 -0.266982 
-0.138658 7.11211 -0.0315142 0.59847 7.89346 0.0807827 0.475181 8.64287 1.3432 
0.0659147 8.79512 2.76456 -0.0474241 8.73395 4.1498 -0.12368 8.94168 5.66251 
0.16177 8.8717 7.02364 0.537678 8.73502 8.04937 0.13025 1.35432 8.84353 
0.0927494 2.46336 9.38639 -0.305655 4.10794 9.37095 -0.0972411 5.8285 9.26315 
0.0758216 7.1032 8.94208 0.489216 8.04273 9.1558 9.19866 0.223247 1.01685 
9.43968 -0.207058 2.39407 9.50764 -0.356033 4.06897 9.40799 -0.284656 5.7125 
9.31089 -0.0480859 7.24074 9.15718 0.234979 8.34527 9.18491 1.41296 0.184519 
8.96591 2.57469 -0.233936 9.19192 4.14867 -0.182195 9.21587 5.78846 -0.357993 
9.28311 7.10725 -0.00663316 8.80547 7.9587 0.101383 8.98491 8.73206 1.22323 
9.13568 8.94114 2.58602 9.28001 8.95101 4.157 9.06682 8.84727 5.72257 
9.08087 8.85858 7.10008 8.86066 8.70852 8.17877 9.04703 1.28568 8.90914 
8.97132 2.61113 9.24663 9.0137 4.12246 9.21918 9.26124 5.7411 9.26119 
9.23385 7.09434 9.06603 8.7484 7.93462 8.98909 1.49098 0.533257 -0.109848 
2.61741 -0.178625 -0.191603 4.40897 -0.0688989 -0.266383 5.8783 -0.0591293 -0.446887 
7.09827 0.243346 -0.197476 8.17485 0.430934 0.0225322 1.56813 0.75519 9.04956 
2.61153 0.00368647 9.09793 4.40133 0.0389752 9.11927 5.94691 0.0343105 9.27137 
7.12655 0.33797 9.04888 8.11315 0.484694 9.17307 1.47351 8.51575 -0.0948725 
2.51143 9.16899 -0.190494 4.3618 9.22343 -0.401958 5.89227 9.21308 -0.459753 
7.17264 8.93685 -0.312191 8.22142 8.75389 0.0535682 1.43182 8.70764 9.32128 
2.62093 9.09598 9.28839 4.385 9.1592 9.48146 5.87747 9.06939 9.50515 
7.20499 8.94053 9.46844 8.17373 8.68007 9.10801 -1.1995 0.215354 4.99144 
-1.41969 6.04143 1.68326 -1.21181 6.07982 7.67857 -0.73764 0.476696 7.84427 
-0.843614 0.479169 1.71474 -0.55217 3.21052 8.53194 0.1534 7.97263 8.45051 
-0.496297 8.15759 6.41011 -0.784127 3.22029 0.510939 -0.791183 8.19341 3.35388 
0.0231467 7.92643 0.706151 -1.68585 5.89986 4.96241 -1.82832 2.92313 3.23502 
-1.59885 2.94975 6.55188 0.00924563 0.770942 8.65346 -1.10948 0.153916 6.47581 
-1.00097 0.323789 3.35627 -0.159848 0.624404 0.52146 -1.01874 4.87737 8.51512 
-0.752284 6.24942 8.61598 -0.685012 7.15293 8.12643 -1.09508 7.17711 7.02745 
-0.371928 8.04446 7.56405 -1.0898 4.78163 0.623532 -0.884284 6.15014 0.667117 
-1.09951 7.15213 2.56798 -0.867758 7.16736 1.14809 -0.552066 8.047 1.91045 
-0.771415 8.28659 4.99756 -1.47636 7.28553 4.13875 -1.76105 5.94654 3.25787 
-1.2877 7.25001 5.7082 -1.65637 6.01469 6.52271 -1.712 4.49311 2.40591 
-1.40006 3.08042 1.69668 -0.713846 1.41456 0.921605 -1.28878 1.16351 2.53704 
-1.45856 0.935354 4.14118 -1.53435 4.61848 7.15569 -1.42366 3.04752 7.77595 
-1.37817 0.937088 5.76508 -1.08708 1.07078 7.04751 -0.60401 1.3821 8.31255 
-1.89431 2.84642 4.99819 -1.88203 4.46863 5.70891 -1.89886 4.43583 4.08834 
9.77748 0.42702 4.90512 9.99828 5.89854 1.68325 9.90922 6.00959 7.71216 
9.45468 0.789098 7.88625 9.48337 0.787055 1.82769 9.58675 3.13914 8.76261 
9.22551 7.81366 8.49854 9.6949 8.13338 6.45055 9.50319 3.24377 0.557839 
9.52823 7.99749 3.3584 9.1061 7.82357 0.764966 10.155 5.79466 4.9078 
9.89653 2.981 3.35395 10.1078 2.83768 6.42363 8.98973 0.962213 8.49767 
9.75176 0.454798 6.45167 9.39385 0.588877 3.29932 9.08853 1.05542 0.681166 
9.88059 4.67692 8.63319 9.46138 6.09223 8.4042 9.59175 7.07446 8.16233 
9.91135 7.0877 7.03443 9.31208 7.98442 7.59717 9.90635 4.69968 0.863726 
9.51094 6.12487 0.640933 9.87731 7.06506 2.69076 9.72293 7.04986 1.26834 
9.46007 8.02278 1.81001 9.76378 8.13999 4.95215 10.0829 7.06972 4.15569 
10.0421 5.8002 3.32782 9.82021 7.02376 5.68442 10.2495 5.78186 6.50078 
10.0003 4.49691 2.58129 9.85237 2.92858 1.7555 9.54022 1.48507 1.11656 
9.80158 1.29508 2.60726 9.83931 1.11761 4.12405 10.0603 4.49392 7.12413 
9.91438 3.12528 7.68956 9.76624 1.2173 5.68072 9.78192 1.26285 7.11623 
9.49175 1.47813 8.17513 10.0304 2.93863 4.8671 10.1199 4.37801 5.71977 
10.2042 4.32643 4.13229 3.983 -1.18755 1.56861 4.01491 -1.14528 7.79649 
8.82412 -0.823533 4.91026 8.67695 -0.280841 7.88206 8.6103 -0.346473 1.64843 
6.69382 -0.575582 8.64268 1.40831 -0.152359 8.5966 1.22322 -1.0499 6.47421 
6.68961 -0.57981 0.408938 1.22271 -0.914421 3.36044 1.41074 -0.207964 0.631591 
4.08018 -1.74804 4.98102 6.69274 -1.50114 3.17876 6.78734 -1.40291 6.68141 
8.40737 0.469539 8.51551 8.80969 -0.655813 6.53259 8.78655 -0.770098 3.23336 
8.34134 0.389698 0.684246 5.37802 -0.88118 8.46624 3.87459 -0.77558 8.65145 
2.67009 -0.844511 8.12493 2.62791 -1.3313 7.15919 1.37799 -0.570413 7.65488 
5.32549 -0.875537 0.638426 3.88229 -0.747214 0.438855 2.62215 -1.32632 2.47023 
2.68169 -0.712615 1.20893 1.24851 -0.840193 1.757 1.16745 -1.13776 4.97463 
2.64629 -1.5422 4.09906 4.02515 -1.51481 3.21047 2.68109 -1.33449 5.74389 
4.03737 -1.66971 6.62156 5.37697 -1.55671 2.35592 6.67639 -1.06448 1.61138 
8.05854 -0.483771 0.767132 8.13527 -1.11809 2.32856 8.23286 -1.40708 4.03559 
5.45486 -1.53305 7.28106 6.78316 -1.07442 7.79573 8.29307 -1.38674 5.77896 
8.23235 -1.0163 7.35379 8.13939 -0.284506 8.52035 6.71968 -1.61463 4.98001 
5.47536 -1.74652 5.79654 5.40533 -1.78505 4.08451 3.89811 9.97357 1.82189 
3.89166 9.99331 7.68536 8.94124 9.59257 4.83668 8.69844 9.3232 7.75252 
8.62214 9.20207 1.82548 6.71692 9.40593 8.74105 1.47415 8.89449 8.40074 
1.14499 9.30658 6.34234 6.81343 9.7327 0.541405 1.09377 9.46814 3.42425 
1.24213 9.13946 0.744135 3.96225 10.3276 4.90975 6.9675 10.0574 3.35619 
6.88239 9.77794 6.39068 8.57858 8.8913 8.69049 8.88983 9.59276 6.45424 
8.70547 9.38387 3.45404 8.43181 8.81151 0.679396 5.2739 9.81136 8.36849 
3.75206 9.47533 8.62542 2.56872 9.63966 8.16892 2.53222 9.79548 6.98842 
1.24672 9.45368 7.55063 5.29763 9.81581 0.983054 3.70033 9.76451 0.580245 
2.45905 9.90332 2.65488 2.51648 9.49184 1.27113 1.26091 9.24512 2.01726 
1.02448 9.55732 4.95402 2.49507 9.78097 4.14791 3.98925 10.0961 3.40171 
2.45612 9.93871 5.65473 3.98122 9.9828 6.36711 5.40804 10.2463 2.60031 
6.79958 9.78488 1.86854 7.99969 9.43653 1.02397 8.12747 9.63442 2.57463 
8.11224 9.59569 4.186 5.43958 9.97387 7.07873 6.91892 9.79825 7.71908 
8.17815 9.55997 5.69733 8.06491 9.50907 7.04365 8.01463 9.22841 8.35323 
6.91524 10.1683 4.93869 5.5341 10.1399 5.65792 5.47574 10.1452 4.17448 
1.6301 3.87694 -1.57763 7.76843 3.85591 -1.46995 5.07987 8.91518 -1.13563 
7.89454 8.55603 -0.586513 1.81368 8.61711 -0.875244 8.4659 6.57543 -0.721198 
8.4275 1.54252 -0.212148 6.56923 1.13925 -0.960939 0.522644 6.57455 -0.865577 
3.52169 1.188 -1.08954 0.875401 1.43078 -0.507493 4.96585 4.02479 -1.93698 
3.17104 6.81422 -1.68007 6.69574 6.80219 -1.67566 8.57093 8.30297 -0.0791631 
6.64496 8.84801 -1.13119 3.37224 8.86528 -1.14961 0.792224 8.36805 -0.256 
8.49688 5.14747 -1.07297 8.54192 3.77802 -0.840773 8.2757 2.5427 -0.983051 
7.11163 2.46783 -1.30225 7.71715 1.23199 -0.777889 0.567699 5.16774 -1.21971 
0.628313 3.74521 -0.845778 2.58039 2.50885 -1.35059 1.22269 2.63002 -1.12637 
1.92344 1.32935 -0.945889 5.10207 1.08596 -1.08801 4.1983 2.5124 -1.76138 
3.23533 3.96447 -1.92355 5.7128 2.54306 -1.57788 6.57424 3.92425 -1.78451 
2.43964 5.3819 -1.67251 1.67841 6.68373 -1.32404 1.10901 7.84447 -0.691112 
2.66696 7.97947 -1.09811 4.25243 8.203 -1.36678 7.188 5.3718 -1.67526 
7.80062 6.69071 -1.27274 5.85811 8.12362 -1.30754 7.26955 8.07805 -1.02031 
8.42478 7.95971 -0.554293 5.01689 6.90785 -1.79721 5.78767 5.51419 -1.88497 
4.12461 5.4935 -1.91879 1.79778 3.90281 10.0531 7.69723 3.83102 10.241 
5.09436 8.54897 9.605 7.73663 8.32232 9.41767 2.03416 8.27621 9.41262 
8.55793 6.52553 9.50903 8.31984 1.64132 9.18986 6.48872 1.22957 9.66841 
0.592272 6.70908 9.8351 3.44931 1.23545 9.7899 0.910691 1.50124 9.36968 
4.95357 4.07282 10.3698 3.26896 6.73388 10.1409 6.57826 6.73177 10.1845 
8.59065 8.26883 9.2811 6.57334 8.42018 9.55246 3.54541 8.5152 9.55928 
1.0407 8.23637 9.15452 8.54821 5.15003 9.86258 8.35766 3.73437 9.59069 
8.1355 2.55866 9.74643 7.01592 2.5064 10.0747 7.59735 1.37237 9.58783 
0.809921 5.22966 9.93485 0.697567 3.68113 9.70496 2.66199 2.50207 10.0484 
1.35164 2.66239 9.8255 2.02169 1.37418 9.61732 5.08386 1.00834 9.7375 
4.24982 2.53927 10.0633 3.31296 3.96765 10.3404 5.67721 2.5518 10.2228 
6.48292 4.01582 10.1677 2.481 5.37923 10.2845 1.81147 6.64308 9.83025 
1.25705 7.85334 9.68349 2.72732 7.99873 10.0251 4.27998 8.03515 10.1218 
7.13672 5.40297 10.1657 7.7368 6.70647 10.075 5.81988 8.11645 10.1415 
7.13337 7.97949 10.0594 8.31787 7.76941 9.51436 5.07394 6.91477 10.1748 
5.73478 5.45669 10.4333 4.13059 5.55978 10.3167 
POLYGONS 709 2124
OFFSETS vtktypeint64
0 3 6 9 12 15 18 21 24 
27 30 33 36 39 42 45 48 51 
54 57 60 63 66 69 72 75 78 
81 84 87 90 93 96 99 102 105 
108 111 114 117 120 123 126 129 132 
135 138 141 144 147 150 153 156 159 
162 165 168 171 174 177 180 183 186 
189 192 195 198 201 204 207 210 213 
216 219 222 225 228 231 234 237 240 
243 246 249 252 255 258 261 264 267 
270 273 276 279 282 285 288 291 294 
297 300 303 306 309 312 315 318 321 
324 327 330 333 336 339 342 345 348 
351 354 357 360 363 366 369 372 375 
378 381 384 387 390 393 396 399 402 
405 408 411 414 417 420 423 426 429 
432 435 438 441 444 447 450 453 456 
459 462 465 468 471 474 477 480 483 
486 489 492 495 498 501 504 507 510 
513 516 519 522 525 528 531 534 537 
540 543 546 549 552 555 558 561 564 
567 570 573 576 579 582 585 588 591 
594 597 600 603 606 609 612 615 618 
621 624 627 630 633 636 639 642 645 
648 651 654 657 660 663 666 669 672 
675 678 681 684 687 690 693 696 699 
[...]
CELL_DATA 708
SCALARS scalars double
LOOKUP_TABLE default
-4.2043959291 -8.1237638258 -4.0485014843 -9.6419622878 -6.3892684108 -8.3005269176 -8.6173648438 -5.5079630049 -6.807324375 
-6.0854427003 -8.7994232391 -5.9823987705 -9.3526342355 -3.8182966316 1.4404562656 0.77195569199 -2.0363102788 -2.2996604207 
2.7203553722 1.2890584703 2.9646865487 5.3862888911 5.7996217883 4.8517719794 6.8177348203 6.0106196446 6.5556779815 
5.7736271149 5.7930244135 2.9639952888 2.7326999981 4.1640879887 3.954822611 -2.2368495071 -1.5271429975 1.4667691521 
-1.4403452372 1.2746438328 1.4167568444 3.7904344466 4.0742843869 5.936083538 4.3977264064 8.146700069 7.0584909303 
6.5564846731 7.7061076851 7.4145500841 5.5238152207 2.2039230569 2.5758824338 2.2094299805 3.7068544447 6.1267277123 
5.7374697877 5.6758903882 4.404228635 8.2825762356 7.6317875073 3.9664526017 1.7727410951 3.5398903843 5.8197244562 
2.8427776799 2.9087647507 3.7453547738 2.1850964837 5.4656424668 5.8910620758 5.0458166591 0.26437339752 -1.3694499943 
-0.73907575077 -0.39659907068 -4.5973878179 -2.0382069309 -5.8360702318 -2.4074225097 -0.69168819489 -5.7857043292 -5.4203188719 
-4.5412447151 -1.7261121471 -1.7783187205 -1.4068125413 -2.0918020415 0.85462945717 -0.13384563112 -1.6806680431 0.6910720209 
-1.9677616021 -6.1789168858 -5.7256813176 -1.2088856046 -0.45960273898 -5.976534817 -0.5309951552 -2.3961361508 -1.3953398737 
-0.72897298704 -2.2121395539 -2.9609362704 -2.8787151069 -1.8203813272 -2.0266891032 -2.425563308 -0.48678461317 0.79031937953 
1.4009644983 0.20021696709 0.15623439879 1.1631165415 0.87849828515 0.30539272587 1.3961667308 -0.24881301464 -0.76352203654 
0.030437993719 -1.9757873818 1.0357121502 -2.9399071413 -5.2525765111 -2.205479647 -3.9340663645 -3.2109973352 -1.9094369329 
0.93739261358 -1.9076497464 -1.6791159137 -1.5516250454 -0.94253994107 -0.78469482641 3.195521765 3.1710526446 -0.031238369848 
-0.41793416312 0.55417519521 -1.1298266825 1.682150706 3.7912421177 3.676421929 4.2367366803 3.4859005072 4.1480824344 
3.7124168912 4.6941066202 4.2249905119 4.5166577479 0.21740055946 2.8456281328 -0.32530186695 -1.0760299829 -1.3322904398 
1.9131807112 -1.2735508506 -0.69880655673 2.0184955573 1.9429848468 3.7212604911 4.2562377769 3.1381244654 3.1983496215 
2.9804242346 1.7760408017 4.5027266885 3.591585732 4.9011058007 0.69722688525 0.044127263508 0.29105134396 -0.076287177557 
4.9681091849 6.8089596383 6.5293679308 4.2627811255 3.7798848853 6.0874709038 1.1962316692 0.14381364756 0.58842863394 
1.6228438079 2.9418171233 1.4972694456 2.7961191671 1.5634514689 0.80595391318 3.9489535389 1.6187252207 -0.36250002337 
-1.8966332981 -0.80915975268 -0.6146947838 0.4643847357 -4.7519668164 -2.4556843743 -0.4301284528 -5.6577025056 -2.6204575776 
-2.1417649109 -5.6003748502 -2.8055089767 -0.44675764365 -0.74344198854 -1.2782254816 0.55662241969 -0.39185980422 -1.5597966735 
-0.54154025022 -2.0441782723 -2.3102474155 -3.1429206112 -0.29090677537 -2.657149307 -0.40912724778 -1.7339384976 -4.5227797185 
-5.4817796185 -1.5665571762 -1.2403264212 -1.5656580163 -0.33920894646 -1.7925923608 -0.67614471125 -1.2618464806 0.1112292808 
-0.096840062982 -0.58813769945 -1.2045763882 -1.4057685881 0.70757019438 -0.16226385249 0.40305765866 0.055646472834 -1.7135863393 
-0.31483107491 -0.94936308534 -7.9035677757 -7.7041633056 -7.2769479674 -7.2991786362 -7.1177810098 -7.800522557 -7.7626966455 
-7.5849334427 -8.1137686552 -7.2112774003 -8.3088887149 -1.9229433877 -8.8349888033 -8.2275432561 -6.4701140301 -9.186944365 
-5.2915293345 -4.9837097896 -6.799453875 -4.9777080139 -6.3065882524 -8.8792414813 -8.6035969968 -8.468313925 -8.3519195286 
-8.3229900558 -7.7156793736 -6.1588735644 -8.0501680348 -3.7927460256 -9.186074292 -7.4783258357 -7.398827316 -4.1311070914 
-6.5826510132 -6.4940913901 -9.3221223578 -8.1582008172 -7.7932578534 -7.3123596381 -8.7737023565 -9.4929993379 -8.5899103886 
-8.9404310833 -8.9619303297 -6.8016702502 -6.7419027245 -7.9515032164 -6.8002276255 -8.8446777424 -9.1679337267 -9.114660639 
-9.1031623906 -7.2651693653 -6.1276774093 -8.3846472896 -8.4277491657 -9.2974952095 -9.3249351718 -8.504050989 -9.8043852495 
-9.8971162013 -9.8940665822 -9.8097975703 -9.6384905923 -9.1174028241 -9.7176313125 -9.6790933783 -9.8499880068 -9.3075613669 
-9.7334019958 -9.2926334129 -9.1924161199 -9.4224159637 -9.1938260858 -6.2932567511 -8.0745227449 -9.7240467872 -3.1962825411 
-8.1339600873 -7.6980673759 -7.568259078 -6.8116407944 -9.5855442394 -9.1608824978 -9.1300188214 -8.7613116218 -9.3632298828 
-8.4856115983 -8.6763056173 -9.6122430866 -6.918245265 -6.6488773129 -6.8929066192 -4.6564064396 -0.65328025291 -6.7881460814 
-8.5783957682 -3.0542871069 -8.3236324432 -9.5167892952 -8.2371185025 -6.9930452256 -9.8936484305 -9.9329299921 -9.9012933281 
-9.7681629873 -9.0927457436 -9.9854693908 -9.8934543801 -9.8346360959 -9.8553601054 -9.7035732858 -9.8542297841 -9.9965906675 
-9.8308421194 -9.7721605002 -9.9300147328 5.8026590281 3.0677042528 6.6341841519 2.4199986151 6.8294184 3.3379150525 
3.9783166202 8.654100486 7.575544136 8.1932529001 7.3797318984 6.6225940767 9.1343034406 9.1336461761 7.8188468732 
8.7715235073 8.9658161167 8.6676952906 8.582707702 9.1580210706 8.4681807834 9.684753519 7.265426848 9.5176752417 
9.7068155007 8.9299626565 7.6790465901 8.8732901907 7.3998903544 9.3711870929 8.7801380567 7.9305080072 8.9783047095 
8.9519136703 7.5826370247 7.4799252148 9.8578577856 9.1005126314 9.2144927522 8.9519882771 9.3439507386 8.9963529934 
9.6869071026 8.9638519105 8.3878752102 8.1617912154 7.0759658567 7.3260823249 8.5694288685 8.7294975524 9.6096288763 
9.5134574623 9.2183468668 8.4748872328 6.4577439251 9.0946114686 9.3579629395 9.6219140956 8.1678832528 8.3348402135 
9.9333803768 9.4941920673 9.8265681084 9.1743726542 9.6380020761 9.9064373433 9.905602323 9.4859086631 9.195727043 
9.8054103339 9.7253186812 9.6617421482 9.9830305592 9.5664890881 9.4832947884 8.0873686465 7.663789169 9.334414438 
6.4816237012 8.1547023032 7.5701185748 9.3093847773 8.4582072438 9.5618784058 9.6614259561 9.7293431232 9.8902744956 
9.9187937539 9.1107841079 9.8937194385 9.7968709601 6.5201743907 8.0585177514 9.9639821296 8.8283582117 8.5348722278 
9.7617016875 2.7572769427 8.1458831945 8.9010127909 9.7228832582 9.1187519475 9.9958784797 9.2214286296 9.129445822 
9.0148450724 9.7311741437 9.9992623604 9.7312902071 9.9242609674 9.9401676246 9.8750765275 9.8734702668 9.9547097608 
9.9287698466 9.9738685458 9.5854384688 9.9982176555 5.5695582892 5.6471389569 4.9766888309 9.3978563525 5.5421054526 
9.1883486141 8.5981425501 6.3695864589 9.3190718235 6.0720772163 8.3437491145 6.5208137898 2.2813547337 9.488405769 
4.8121517547 -1.1124283713 -0.90060576638 1.8264200598 2.0481753513 -0.82916491333 -0.82504605824 -2.4084115656 -3.8536888373 
-3.1110538809 -2.6048276847 -5.7723709391 -6.0450135569 -2.8288237612 -2.9602934729 -2.3687659033 -0.45735744707 -3.731181436 
-0.80769965078 -3.2756231221 2.2908154014 3.7261637834 -2.3373457341 1.6367019598 1.3950136918 -2.5055218711 -2.8193669375 
-2.6737246716 -3.3001691898 -2.2893778558 -5.4851845479 -5.7400214539 -3.4245973014 -5.404448201 -5.5073821267 -4.880045806 
-3.1620647882 -1.0421569365 -0.33098140531 -1.1889284799 -4.6823657504 -4.3746757096 -5.1437493969 -3.4406438202 -5.6503073758 
-5.365481764 -2.8583508724 -1.1344698498 -2.6164711201 -3.090147817 -1.9632227116 -2.2586631528 -2.5104531812 -1.7530280943 
-3.5224562849 -4.4097850839 -3.6098398851 0.69168485427 2.1465155034 1.1752985153 1.1389605198 6.464537782 6.2111133819 
3.6475181854 -0.4879289209 4.3597393581 6.5600216714 0.84794381859 -0.00060227197644 3.4571020543 2.9443076451 3.5821227818 
0.39477268169 1.2047017394 1.9581662736 0.76304819307 3.7668166438 5.7797816033 6.3854762657 0.21202300152 1.1259106962 
5.9425538741 2.935394171 1.5088272892 3.1009859532 1.102876876 2.9671863619 3.0523917795 2.5712393863 3.1891407128 
2.744812457 3.4222171892 0.52416610716 -0.34187836738 -0.16733847291 0.11347994616 0.70803455521 0.077860454958 0.53139042214 
0.90236234174 0.23852407939 1.2876046874 1.0579929703 0.73496701502 4.2755393014 7.3780020091 5.13770738 1.1357863935 
5.4682962484 1.9406787812 2.7102187843 4.9297558709 2.6469502196 4.5669000939 1.6938389085 3.9122051898 6.8176424094 
3.2976141168 4.2384761485 -2.2614826506 -2.2826595353 1.3582002777 2.0859771846 0.020262322746 -1.2507248186 -2.6131671351 
-3.503509946 -3.4299734108 -2.5213263075 -5.031639848 -4.4487557451 -0.76337669622 -1.0338556043 -2.2511562014 -0.37277378081 
-3.7687970026 0.16921333 -0.97349226477 2.4909046958 4.6317921093 -1.213912517 -0.36386355772 1.1759815178 -1.1185164102 
-1.1446504386 -2.8196277876 -2.7482782764 -2.5321730389 -4.8939449346 -5.5421441886 -3.7769075382 -5.1009057751 -4.6461580931 
-4.0568274728 -2.5586289624 -0.71749683496 -0.90588717463 -0.74391699666 -4.0323821483 -3.5478038332 -4.1158290897 -2.0261300593 
-5.1493880902 -4.9155341553 -1.1457271752 -1.9369974333 -1.9342888224 -3.3631675857 -0.34081514586 -0.87053116241 -0.2266383645 
-1.4667707451 -3.3273914722 -2.0679156431 -2.6135592349 -0.61101996319 0.68393845123 2.2657742532 2.2530339622 0.56038238387 
3.6610469272 0.63994081403 7.3061949788 5.6138462345 4.6173963668 7.1927101232 7.7516602981 0.002767114483 1.2521388516 
0.13805941607 1.2827028856 0.25678463848 1.9793085224 -0.26461369944 0.68949517817 4.9061201542 4.0908715268 8.1119718319 
0.91071808863 4.1090082988 5.6959832825 1.9042233708 -1.5076495101 1.0852532702 0.57334846497 2.1909141042 7.450141747 
0.29497993639 0.31731962917 0.36848078883 0.65769912559 0.2782373713 -1.1627148935 -0.85178271724 1.2424893206 0.24935737738 
-0.68980781069 0.26432340761 -0.04663111534 1.2552001318 1.8143710428 1.4674849344 
