# vtk DataFile Version 5.1
vtk output
ASCII
DATASET POLYDATA
POINTS 356 float
0.434253 0.467842 0.202175 0.554959 0.626346 8.72857 0.623554 8.48483 0.28516 
0.866337 8.29537 8.62488 8.67988 0.772975 0.28582 8.6483 0.775118 8.75619 
8.70219 8.33495 0.456322 8.68526 8.28453 8.77374 0.0249882 0.299424 1.32263 
-0.455378 -0.124173 2.57342 -0.635404 -0.257547 4.14235 -0.63433 -0.31522 5.67268 
-0.375436 -0.141961 6.98515 0.0196773 0.248439 8.1002 -0.0415586 1.32779 0.178124 
-0.0667411 2.47693 -0.430885 -0.275805 4.10284 -0.404672 -0.340283 5.75703 -0.29449 
-0.128452 7.03245 -0.0902209 0.553274 7.80337 -0.0478583 0.459542 8.47841 1.37349 
-0.0572272 8.77485 2.71702 -0.0842375 8.77092 4.18876 -0.11737 8.88426 5.61315 
0.174792 8.80035 6.90333 0.609672 8.47348 7.91464 0.270951 1.34498 8.62701 
0.0300801 2.50098 9.3138 -0.266705 4.0977 9.20397 -0.130617 5.78085 9.04718 
-0.012232 7.07816 8.96257 0.661634 7.88076 8.99215 8.89784 0.355348 1.09964 
9.1078 -0.0987489 2.42685 9.36677 -0.355035 4.08808 9.54117 -0.330315 5.69813 
9.33682 -0.145085 7.16212 9.09634 0.339217 8.24122 8.91728 1.31943 0.311632 
8.98411 2.45522 -0.316289 9.11732 4.07196 -0.205559 9.25598 5.7375 -0.303094 
9.24682 7.01994 0.0589608 8.63157 7.84271 0.13014 8.68816 8.5597 1.29731 
8.83729 8.72362 2.60441 9.08925 8.83535 4.12037 9.0556 8.80996 5.67947 
8.79495 8.79703 7.05037 8.95063 8.70266 8.12244 8.77937 1.40216 8.6959 
8.84908 2.50382 9.23396 9.13568 4.11042 9.11287 9.00484 5.71247 9.20889 
9.09732 6.9976 8.91019 8.8046 7.81101 9.02453 1.53236 0.556896 -0.0445554 
2.69713 -0.124242 -0.271151 4.34869 -0.123716 -0.486292 5.8182 -0.0533117 -0.51914 
6.95692 0.121742 -0.44242 7.90721 0.38871 0.00580455 1.4147 0.658057 9.01309 
2.63231 0.0451185 9.02503 4.37027 -0.0475653 9.17149 5.9167 -0.0193851 9.1404 
7.05948 0.332984 8.94994 8.08296 0.535507 9.07861 1.47287 8.51229 -0.246256 
2.48551 9.05421 -0.207556 4.35366 9.14433 -0.493922 5.83011 9.14688 -0.556465 
7.15293 8.83428 -0.390584 8.00106 8.65444 0.0781567 1.6532 8.404 8.96884 
2.67214 9.01574 9.32165 4.27226 8.97887 9.43985 5.86118 8.84788 9.2973 
7.07814 8.66804 9.20307 8.11328 8.52521 9.09253 -1.10112 0.22162 4.90988 
-1.34544 5.99569 1.74607 -1.35297 6.06498 7.64086 -0.613782 0.612777 7.59458 
-0.956309 0.47633 1.7609 -0.748271 3.19024 8.46536 0.0681111 7.90764 8.49704 
-0.682635 8.01011 6.34106 -0.944983 3.23849 0.496196 -0.721949 8.06584 3.33058 
-0.170914 7.79682 0.627435 -1.85398 5.92111 4.86991 -1.88758 2.94837 3.21086 
-1.79662 2.96293 6.38148 0.00314655 0.827828 8.35071 -0.970201 0.345302 6.38289 
-1.03623 0.352909 3.28996 -0.123866 0.754527 0.578338 -1.09187 4.80356 8.42228 
-0.816721 6.18933 8.56277 -0.554548 7.01472 7.88493 -1.29967 7.17093 6.9716 
-0.531433 8.07362 7.53327 -1.08103 4.78888 0.71177 -0.800706 6.13978 0.645987 
-1.25885 7.08729 2.5844 -0.752712 6.98119 1.36351 -0.613892 7.98347 1.91133 
-0.871064 8.15917 4.9584 -1.50014 7.16418 4.12766 -1.60937 5.897 3.26206 
-1.35723 7.11442 5.59775 -1.74316 5.96697 6.40051 -1.69121 4.56361 2.47808 
-1.4061 3.17981 1.79013 -0.753594 1.36148 0.952106 -1.26465 1.15458 2.56797 
-1.60038 0.806209 4.14869 -1.74342 4.60718 7.05905 -1.37483 3.09108 7.56889 
-1.53848 0.840466 5.66042 -1.22778 1.03323 7.01752 -0.774609 1.35393 8.35242 
-1.8114 2.92717 4.92632 -1.97434 4.47816 5.65407 -2.01424 4.47149 4.07926 
9.38225 0.461621 4.85288 10.0479 5.8437 1.77984 10.019 5.87488 7.54718 
9.24657 0.85683 7.56196 9.50077 0.700753 1.78039 9.32262 3.15078 8.47858 
8.95296 7.77025 8.32024 9.6514 8.07269 6.3648 9.40343 3.22143 0.593336 
9.63811 8.05617 3.37435 9.06753 7.74133 0.764863 10.0402 5.75291 4.89202 
10.2698 2.86371 3.22174 10.0095 2.93062 6.42187 9.03057 1.01092 8.52662 
9.61225 0.559497 6.41334 9.79047 0.425303 3.13963 9.16642 0.980953 0.599407 
9.84259 4.65659 8.45874 9.36898 6.05082 8.39847 9.61506 7.0254 8.04946 
9.68765 6.97092 6.92051 9.45477 7.85492 7.53176 9.84475 4.70342 0.841785 
9.40462 6.06077 0.762378 9.67983 7.00439 2.63094 9.64422 7.00078 1.2596 
9.44885 7.94053 1.86689 9.50928 8.07701 4.90126 10.165 7.01386 4.13315 
10.253 5.83533 3.30701 10.0171 7.0188 5.67482 10.2213 5.82695 6.45501 
9.94278 4.42079 2.5749 9.93525 3.01013 1.78111 9.5276 1.53898 1.01417 
9.56627 1.352 2.60404 9.85563 1.1271 4.20279 9.88229 4.41693 6.98743 
9.87041 3.02014 7.51972 9.88435 1.08136 5.56275 9.69002 1.23094 6.98187 
9.49552 1.55164 8.22315 10.0536 2.90462 4.87448 10.3203 4.40657 5.59356 
10.3815 4.41059 4.16842 3.92676 -1.35156 1.55498 3.93036 -1.35127 7.67853 
8.78897 -0.920769 4.89619 8.56249 -0.201869 7.75075 8.68717 -0.662248 1.63216 
6.62936 -0.522697 8.50765 1.5325 0.0283944 8.35786 1.28531 -1.00905 6.31163 
6.66087 -0.642464 0.360972 1.19692 -1.04607 3.37816 1.38986 -0.323903 0.568204 
4.02533 -1.80046 4.93428 6.63248 -1.73303 3.11186 6.70959 -1.50536 6.57957 
8.27561 0.495724 8.39896 8.70581 -0.629858 6.45235 8.69161 -0.855096 3.07813 
8.36486 0.214745 0.456312 5.28762 -0.8766 8.2544 3.84318 -0.701154 8.42752 
2.608 -0.807444 8.06088 2.60719 -1.35652 7.02653 1.24362 -0.681137 7.58968 
5.28292 -1.02277 0.598056 3.8693 -0.849808 0.41778 2.50539 -1.42671 2.42658 
2.71171 -0.89614 1.12882 1.19798 -0.780427 1.76845 1.18401 -1.20935 4.94705 
2.6295 -1.63944 4.08687 3.95626 -1.76184 3.18006 2.58585 -1.67209 5.70223 
4.03123 -1.71478 6.50312 5.34572 -1.56281 2.39518 6.58935 -1.16129 1.51598 
7.89304 -0.372446 0.81993 7.9444 -1.09641 2.3766 8.16426 -1.43532 4.07105 
5.37717 -1.544 7.14929 6.60183 -1.08641 7.60948 8.24554 -1.35676 5.76556 
8.16965 -0.944338 7.25228 8.07823 -0.332909 8.45239 6.64444 -1.61992 4.97329 
5.3919 -1.84806 5.76185 5.38135 -1.92077 4.08301 3.85899 9.93477 1.90794 
3.88679 9.97998 7.58701 8.74408 9.47818 4.97812 8.41052 9.05664 7.63289 
8.64469 9.38449 1.82717 6.61517 9.46336 8.6569 1.40099 8.91859 8.46774 
1.13785 9.28584 6.26444 6.71092 9.73366 0.5086 1.04464 9.41458 3.38317 
1.24819 9.05246 0.723651 3.87399 10.2243 4.90156 6.77985 10.0397 3.31484 
6.84348 9.97902 6.35782 8.2145 8.53455 8.38407 8.7592 9.50389 6.28219 
8.74908 9.54252 3.33817 8.60482 9.01068 0.592487 5.18995 9.57936 8.46549 
3.75241 9.39447 8.49652 2.54896 9.49547 8.08269 2.46073 9.73453 6.90678 
1.2052 9.26874 7.50768 5.18364 9.70463 0.878008 3.67411 9.75961 0.551815 
2.38018 9.87876 2.65896 2.50912 9.49755 1.2004 1.19313 9.2755 1.97042 
1.03372 9.48146 4.92937 2.45518 9.77037 4.12081 3.85723 10.187 3.33391 
2.44566 9.96143 5.59911 3.87292 9.93244 6.30239 5.43852 10.1606 2.60952 
6.7195 9.72641 1.82414 7.84915 9.15328 1.06058 7.89212 9.54021 2.58204 
8.00395 9.53694 4.13995 5.36162 9.98548 6.98719 6.71376 9.57781 7.60111 
8.00725 9.46348 5.59608 8.02175 9.55773 7.069 8.00758 9.31277 8.39083 
6.84646 10.0675 4.92633 5.35951 10.0961 5.61302 5.43214 10.0644 4.14859 
1.66914 3.81324 -1.63938 7.60173 3.86214 -1.5092 5.08513 8.7356 -1.10429 
7.91203 8.5526 -0.836286 1.86006 8.38524 -0.803691 8.49025 6.56519 -0.700561 
8.42446 1.53603 -0.477056 6.44245 1.11992 -1.09582 0.575602 6.44807 -0.899427 
3.50833 1.23614 -1.11323 0.777482 1.29671 -0.665953 4.8974 3.94073 -2.02982 
3.21836 6.62425 -1.82956 6.5597 6.72618 -1.70779 8.67498 8.36876 -0.213467 
6.54782 8.75085 -1.19654 3.401 8.7198 -1.04155 0.827747 8.23056 -0.244915 
8.38193 5.16912 -1.19989 8.50741 3.66844 -0.977689 8.03922 2.57119 -1.04802 
7.03074 2.44527 -1.56137 7.58487 1.18899 -0.836841 0.745426 5.16863 -1.29746 
0.554934 3.69056 -1.09597 2.55771 2.45113 -1.62935 1.28955 2.62322 -1.05152 
1.92125 1.28176 -0.978683 5.05646 1.02178 -1.302 4.15487 2.47028 -1.76236 
3.26088 3.9415 -1.85111 5.67477 2.50856 -1.70907 6.47651 3.89397 -1.89368 
2.49331 5.28928 -1.93439 1.72304 6.57289 -1.43805 1.03319 7.81306 -0.90693 
2.65757 7.89329 -1.33169 4.25112 8.11911 -1.47634 7.0446 5.32539 -1.77212 
7.66641 6.58228 -1.42677 5.80124 8.07557 -1.42158 7.10483 7.92558 -1.05131 
8.30646 7.80186 -0.628859 4.9762 6.73402 -1.90125 5.73716 5.35531 -2.01599 
4.09833 5.37797 -2.1004 1.84601 3.83635 10.0385 7.56776 3.8321 10.2074 
5.13329 8.46794 9.62675 7.801 8.32823 9.53085 1.99861 8.24184 9.36654 
8.3952 6.50489 9.48612 8.38249 1.58858 9.21949 6.43774 1.09841 9.78518 
0.709123 6.46279 9.31506 3.45276 1.11822 9.73714 0.952283 1.44419 9.28263 
4.8774 3.92781 10.2947 3.34882 6.72755 10.2502 6.4936 6.61823 10.2646 
8.40081 8.05567 9.04477 6.44404 8.48263 9.87256 3.48607 8.24093 9.37357 
1.09225 8.17192 9.11655 8.39234 5.0902 9.89555 8.37505 3.68761 9.5786 
8.04692 2.53598 9.75238 6.90731 2.53954 9.90069 7.54073 1.33283 9.60007 
0.798775 5.1599 9.78907 0.822086 3.69775 9.47749 2.69091 2.41909 9.95394 
1.24914 2.56659 9.67818 2.14857 1.42818 9.31592 5.03403 0.995302 9.58017 
4.17692 2.45753 10.1279 3.23359 3.97772 10.3711 5.64704 2.45483 10.2479 
6.4152 3.9006 10.4218 2.53123 5.35327 10.0641 1.71318 6.54766 9.88508 
1.2503 7.64371 9.51106 2.7003 7.77122 9.8182 4.22176 8.02713 10.0517 
7.03399 5.30122 10.119 7.61495 6.61125 10.0458 5.79934 7.85692 9.9805 
7.07889 7.82065 9.75269 8.1831 7.66011 9.42583 4.99396 6.78988 10.132 
5.66612 5.40704 10.5553 4.15177 5.41792 10.3867 
POLYGONS 709 2124
OFFSETS vtktypeint64
0 3 6 9 12 15 18 21 24 
27 30 33 36 39 42 45 48 51 
54 57 60 63 66 69 72 75 78 
81 84 87 90 93 96 99 102 105 
108 111 114 117 120 123 126 129 132 
135 138 141 144 147 150 153 156 159 
162 165 168 171 174 177 180 183 186 
189 192 195 198 201 204 207 210 213 
216 219 222 225 228 231 234 237 240 
243 246 249 252 255 258 261 264 267 
270 273 276 279 282 285 288 291 294 
297 300 303 306 309 312 315 318 321 
324 327 330 333 336 339 342 345 348 
351 354 357 360 363 366 369 372 375 
378 381 384 387 390 393 396 399 402 
405 408 411 414 417 420 423 426 429 
432 435 438 441 444 447 450 453 456 
459 462 465 468 471 474 477 480 483 
486 489 492 495 498 501 504 507 510 
513 516 519 522 525 528 531 534 537 
540 543 546 549 552 555 558 561 564 
567 570 573 576 579 582 585 588 591 
594 597 600 603 606 609 612 615 618 
621 624 627 630 633 636 639 642 645 
648 651 654 657 660 663 666 669 672 
675 678 681 684 687 690 693 696 699 
[...]
CELL_DATA 708
SCALARS scalars double
LOOKUP_TABLE default
-5.8926665176 -3.2840594976 -5.6529558245 -6.2591126679 -6.1513264534 -6.7591366197 -5.7575566155 -6.656398074 -6.730197959 
-5.3017895415 -8.443864539 -6.2663926273 -7.3195384781 -5.3170658566 1.2240895913 0.28611731445 -1.004465945 -1.4041817279 
1.0335605617 1.2235156651 4.0657311908 1.9786295198 6.226856551 2.2812293663 7.0797829819 7.1792318832 7.9232289154 
8.1208040994 8.1433626415 4.456931553 5.4157012149 3.1406161918 5.3478050378 -0.87034342635 -2.1919908125 1.6469834714 
0.1107153014 0.076422377882 1.550479283 3.6202603133 5.3352691599 3.1362315959 3.302004859 6.7851531904 8.02652101 
7.3118315706 7.5712615792 6.3574843539 2.9653814618 3.6723390454 3.5481325594 2.1920145181 3.9270589914 5.4254512858 
6.3152426388 6.4741183628 5.6341202588 7.3357528337 7.5037085591 1.9640654266 1.8649092216 1.93375035 5.9677666358 
3.5386035896 2.1325684764 3.3478620118 3.2841649118 4.9921125894 5.9366709262 4.6995023148 0.65627912972 -0.35713580665 
-0.32830437395 -0.30427286676 -3.4738692323 -3.7433410834 -5.5776997675 -2.3589578034 -3.3866272262 -5.0911543942 -6.7148003653 
-4.8989116501 -0.64461599374 -1.9598271715 -1.7626389355 -1.8702581428 0.7392261199 -1.1128937777 -1.5529331303 -0.7041172927 
-1.987852022 -6.030599979 -5.4790056414 -5.3965399174 -0.30000954661 -3.8933399868 -5.5299739343 -1.2058701113 -3.5782595379 
-0.2359596368 -1.5870046567 -1.601141864 -6.1327938869 -1.2512242448 -1.1438738211 -1.1459246962 -0.36235205245 1.3923520965 
1.1964117539 0.75248618909 0.30237967582 1.8933129291 1.5378199553 1.6854479409 0.96473842536 -1.0700075672 -1.1041477492 
-1.1634344627 -3.1298040302 -2.5869745001 -2.2912008692 -2.0636540599 -2.5250879263 0.82915390399 0.013621389659 -3.2023089972 
-6.5405871388 -3.1610095378 -6.1531052203 -4.7305020574 -6.43454849 -3.9132600092 2.9124578353 2.9898543897 -1.2407675327 
-2.527662794 0.32596446324 0.10857888236 3.1298774414 4.5950864457 1.2675154004 2.2063815139 3.2746307146 6.3656054263 
5.4684732766 0.92658268012 1.1709578271 3.1083382407 0.15515460049 4.9011494669 -0.32154618869 -0.49746611346 -0.31457161726 
2.4501459417 -1.7242484475 -1.0109984923 2.8948441074 3.1905012654 1.3332687362 4.0893881438 2.1949164358 6.7082314631 
5.7437963512 4.774913999 6.9974360751 6.8891475696 4.7275324589 0.60696480213 -0.74900499613 0.50217201836 2.3079650635 
5.705845114 5.8248595011 6.9786647483 2.4797935796 5.3309170024 5.053661738 3.7962867604 -0.18559943855 2.7641773104 
1.6153283731 0.9156466279 3.6554678036 3.2227325208 -0.40915562402 3.7770482729 4.8838355677 4.7942401145 -1.1492636929 
-1.9092344394 1.1501523245 0.2422220772 -3.4878646524 -2.2123054889 -4.4313630995 -3.3912985336 -0.015135922619 -1.6856789132 
-3.1891754467 1.4601907541 -0.60633368534 -3.2492294193 -0.36362450079 -2.4142414736 -1.1024734045 0.38254621467 -2.7579603406 
0.016730288448 -1.3524099738 -2.1679070532 -1.4164924275 -2.4358252689 0.059389972678 -2.2024613074 -5.3836201704 -0.28646736545 
-0.064968135719 0.14985730344 -1.3967078138 -1.554125999 -6.030690817 -0.81246870243 -1.5882395705 -1.0153601733 -0.32505620156 
-1.6247823776 1.4161416053 -1.1504509761 0.92088983169 1.7249919601 -1.4642122262 -0.73611432799 2.2465068822 -1.5145621978 
-1.8921309043 -1.9394334788 -7.8459566309 -7.7406357029 -8.2168570163 -8.6597425507 -7.8394976882 -7.5350739047 -7.9995938766 
-7.4102691545 -6.053805185 -7.4861334673 -3.2193131614 -7.0895977932 -4.9954278853 -5.3856149096 -5.84885005 -7.5589471749 
-7.472944665 -5.5269061901 -7.4114081812 -7.1284246089 -7.279482265 -8.6116612963 -6.405652183 -9.0716415814 -8.5806373989 
-8.9860102419 -7.963862652 -7.445576024 -6.7461331297 -7.0410419026 -7.5640838077 -6.9240017273 -7.4095263727 -7.2462733547 
-7.4388346324 -7.3718721106 -9.1434226936 -7.7576938387 -7.6027312439 -7.7582954996 -8.9625628467 -9.1426808417 -8.973217404 
-8.8560196125 -8.9113722373 -7.4899919509 -5.5002420236 -7.8681432519 -7.3673453933 -8.9254742955 -8.6332409104 -8.9984136833 
-8.4859579613 -7.5452018127 -4.6955047326 -9.0959053979 -8.9963040921 -9.3540582984 -8.9888037395 -8.9155566063 -9.6539146902 
-9.9442776828 -9.7936931054 -9.0683702082 -9.9671727872 -9.4979490338 -9.601998236 -9.9463683996 -9.0778173343 -9.3578566649 
-9.5354391979 -9.5703281407 -9.0126665393 -9.3892019625 -9.5165124424 -6.504389824 -4.7556495462 -9.2014272338 -6.8374704913 
-6.841476402 -7.4293011935 -8.4091761652 -9.0058582779 -9.0820491429 -8.6907083326 -8.6062729425 -8.5070485538 -9.0196811313 
-8.4225296225 -8.4543729664 -9.3373017483 -7.1979021425 -6.4956925789 -6.6178809488 -4.9533078115 0.17554122903 -6.1536105576 
-8.6294394594 -2.0558019842 -8.4157904063 -9.0643328364 -8.7025938195 -7.7553090613 -9.8932256507 -9.8619139442 -9.8891823856 
-9.6955072165 -9.5564733083 -9.9620022468 -9.765545808 -9.782055389 -9.9486903487 -9.6957466732 -9.7789359279 -9.971787285 
-9.7961396146 -9.7455503054 -9.7810450862 8.3882382702 8.4154437168 6.0056045972 2.472532636 7.4265951984 4.4515821687 
8.3349734508 7.4237419669 2.6078051997 6.8518092264 1.3463222609 7.8367921549 2.4037344932 1.4708136854 6.681926665 
8.4332942172 8.8759695675 6.1784603339 7.3830315839 9.1323718077 7.9126981015 9.414848231 8.7109849424 9.4186658276 
9.4508608441 9.0171367234 6.7068523213 6.5323935671 6.7094222408 4.5032930458 8.4304187795 8.7402964485 9.2989106031 
5.3133135147 7.4338892699 7.0501983882 9.8845710583 9.0721174382 9.2923999374 8.8884212592 9.4970553231 9.1239052544 
9.4687420786 9.1289130532 8.6658090393 7.3067189237 7.8228556736 7.6796654638 7.6387967247 8.8998099905 9.3165287144 
9.602487342 8.9362053027 8.1721614118 7.6361184895 9.1202849094 9.1867668245 9.5457816894 8.5523681138 8.6447415617 
9.7698066871 9.5533183107 9.6707359664 9.079113187 9.7582186076 9.8755855783 9.8310436137 9.6287485779 9.0794666528 
9.7388499946 9.5592877041 9.6765727968 9.9982847794 9.5794116296 9.4957622016 8.4591221415 4.7666192814 9.1831128785 
8.7722361941 5.9687104166 7.7863994701 9.9998524921 9.6845820726 9.3617735133 8.9125476689 9.2141771649 9.5531998811 
9.3813813352 9.9137198096 9.471291498 9.2709949074 6.8449165371 7.0350329069 9.9794515231 6.3378053393 0.76433748618 
6.9886914723 9.0434151464 2.5328875937 9.8448196249 9.3734730922 9.7916327347 9.9848408399 8.98634507 9.1670062874 
8.9643455363 9.9604289281 9.991489127 9.788904642 9.9415512966 9.9642096023 9.9561073699 9.8272805164 9.9701631694 
9.9542840703 9.9981798023 9.9695180776 9.9973015997 4.3138954105 9.1556077579 3.8335918481 9.2374036838 6.0867476615 
8.1601578421 9.5213362403 6.8167604244 8.7195614503 6.9077312714 7.8953247433 7.4955426943 3.1420827165 7.8753295776 
5.8076408347 -0.87416496619 -0.2447416331 2.1647335298 2.1924851762 -0.23196373577 -1.006127659 -1.546370116 -2.8326095466 
-4.1035031162 -2.8065414893 -4.5073703469 -5.3800242617 -5.184263636 -5.1858738632 -3.5543900559 -1.479272754 -2.1651950843 
-1.9904919074 -3.0663194946 2.2422954924 2.1537830799 -0.67047145499 1.5560968775 0.23150344481 -0.20862477717 -2.8627887554 
-4.4719179773 -1.7482125826 -2.4931654886 -4.7303732558 -7.3677751886 -3.8770176685 -6.989507109 -5.9013734099 -4.8597452745 
-1.0806861883 -3.0473661672 -2.9248084315 -0.72669726447 -3.5610850026 -5.0334834133 -4.9357524164 -4.3561835486 -4.9836594107 
-5.8406030853 -0.8838810576 -1.249751293 -1.0910071863 -3.6327007526 -1.7665303116 -0.94043971593 -1.8682867093 -1.9800197139 
-3.2254832309 -3.9029501827 -2.7955337985 0.035204580846 2.1458647146 2.1222395555 1.4933335359 6.255513739 7.4578415329 
3.1196679791 3.2048286264 6.0460375421 6.8846425511 4.3972388462 4.9994256898 2.5433814232 1.403257089 2.5650784578 
-0.16143209551 1.3399475613 2.1114420875 0.54606764661 3.5314390994 6.000359046 5.7892100799 0.16398199572 1.4068273932 
6.2055574692 -0.91245785137 -1.1193255095 -3.081277962 1.4051902612 3.6324370018 3.8263318283 4.7151893583 2.6912409162 
2.6598636735 3.1320120778 1.087889371 -0.47398894839 -0.40512346898 0.10612219052 1.3672173026 -1.0855757927 -1.2943589913 
-1.1568540357 -0.20602480052 1.7745588049 1.4828547494 1.1165183925 3.0342087995 2.563790236 4.4066752378 8.9956452206 
5.624948511 5.11117727 8.4759640888 4.8319489466 -0.10830680672 3.425932343 5.0701005081 5.9177289962 6.7966933415 
8.9404607461 0.71409625018 -1.8593606902 -1.8546249769 1.4849267951 2.1629605175 -0.31733899327 0.1972413396 -2.8803133441 
-3.0183254582 -1.4067983094 -1.7678012124 -6.1046653078 -5.4604323763 -2.6430899181 -2.4506853041 -3.5638114584 -0.53546994076 
-2.7492470278 -0.27608946933 -1.0202580882 0.94120578501 0.37928415945 -1.9286699312 2.6948652553 1.2175021505 -2.0297981281 
-1.7812304169 -3.5597420017 -3.2500084079 -4.4441952521 -4.9646629738 -3.402909791 -1.6330204031 -4.4885749706 -2.4882939572 
-3.1046836855 -2.5774805457 -0.24592069532 0.60467981082 0.23038358886 -5.0663178674 -4.6398304269 -5.7844900793 -2.2440284225 
-3.9710339149 -3.7877244658 -1.8333000411 -1.3239480248 -2.2187958206 -1.6470216551 -0.75172324337 -3.0316695121 -2.5643159178 
-0.74062779502 -3.7622536313 -3.1387620136 -3.8837307944 0.56899919802 2.6736970717 -0.027491993381 0.37693864488 4.0015739812 
6.6353538169 2.7202714331 4.1670966065 3.6061276034 5.3092466191 8.3795588473 4.8237116258 2.4237289239 0.8460565276 
2.3008698585 1.2403634087 -0.3001043209 2.2376026202 -0.15768844054 3.1229216095 5.3757761065 5.3990443346 -0.10463348761 
1.459889246 3.2072971379 0.12663110476 5.0574617231 5.3534136471 1.496827719 3.0781432592 3.5226128962 5.7710068312 
1.8828729059 1.0634923805 0.99161278057 0.19950121969 1.2716214458 -1.2926442684 0.69094764981 -0.1704881266 -0.39644088253 
0.92584213272 1.1592126982 -1.1485915069 1.4313036782 2.6796450551 2.4376445341 
