# vtk DataFile Version 5.1
vtk output
ASCII
DATASET POLYDATA
POINTS 364 float
10 0 0 10 0 10 10 9.9927 0 
10 9.9927 10 10.1589 9.99491 -0.0167466 10.1866 10.0284 9.99287 
5.00549 18.8114 10.057 5.01864 18.8304 -0.0982071 0 0 0 
-0.129718 9.7389 6.92389e-05 0 0 10 10 10 0 
-0.0102205 9.9983 -8.69942 10 10 10 10 0 2 
10 0 4 10 0 6 10 0 8 
10 1.99854 0 10 3.99708 0 10 5.99562 0 
10 7.99416 0 10 9.9927 2 10 9.9927 4 
10 9.9927 6 10 9.9927 8 10 1.99854 10 
10 3.99708 10 10 5.99562 10 10 7.99416 10 
10.0692 9.96209 1.87368 10.0864 10.0638 4.09038 10.0526 10.0313 5.9859 
10.0096 9.99566 7.69454 9.28345 11.4851 9.99561 8.31878 12.8647 9.99636 
7.51345 14.3298 9.99629 6.72122 15.8009 9.99634 5.74765 17.1905 9.99781 
5.07414 18.913 1.5352 5.04452 18.7327 4.52095 5.24321 19.3006 6.02485 
5.11483 19.007 7.58483 9.0658 11.3648 -0.00797154 8.37018 12.8907 -0.0195856 
7.52801 14.3387 -0.0336486 6.68348 15.7791 -0.0486803 5.88545 17.2528 -0.0921352 
0 2 0 0 4 0 0 6 0 
0 8 0 2 0 0 4 0 0 
6 0 0 8 0 0 1.66667 9.99878 0 
3.33333 9.99757 0 5 9.99635 0 6.66667 9.99513 0 
8.33333 9.99392 0 0 0 2 0 0 4 
0 0 6 0 0 8 2 0 10 
4 0 10 6 0 10 8 0 10 
2 10 0 4 10 0 6 10 0 
8 10 0 0 2 10 0 4 10 
0 6 10 0 8 10 1.66667 9.99878 10 
3.33333 9.99757 10 5 9.99635 10 6.66667 9.99513 10 
8.33333 9.99392 10 2 10 10 4 10 10 
6 10 10 8 10 10 4.35449 17.1812 9.99719 
3.26779 15.839 9.99575 2.52201 14.3339 9.99607 1.62316 12.9135 9.9964 
0.89335 11.2331 9.99434 4.14945 17.2558 -0.0907933 3.34968 15.7832 -0.0488021 
2.50187 14.3443 -0.0379484 1.67131 12.8967 -0.0297433 0.837118 11.4575 -0.0219668 
-0.681633 9.59064 1.95923 -0.631406 9.59569 3.99138 -0.81067 9.48005 6.06234 
-0.347746 9.9817 8.02491 10 5.96321 1.51929 10 5.96321 8.48071 
10 8.97759 6.74035 10 8.97759 3.25965 10 5.96321 5 
10 2.94882 3.25965 10 2.94882 6.74035 10 4.45601 9.35089 
10 7.4704 9.35089 10 7.4704 7.61053 10 8.97759 8.48071 
10 4.45601 0.649113 10 7.4704 2.38947 10 7.4704 0.649113 
10 8.97759 1.51929 10 8.97759 5 10 7.4704 4.12982 
10 5.96321 3.25965 10 7.4704 5.87018 10 5.96321 6.74035 
10 4.45601 2.38947 10 2.94882 1.51929 10 1.44163 0.649113 
10 1.44163 2.38947 10 1.44163 4.12982 10 4.45601 7.61053 
10 2.94882 8.48071 10 1.44163 5.87018 10 1.44163 7.61053 
10 1.44163 9.35089 10 2.94882 5 10 4.45601 5.87018 
10 4.45601 4.12982 8.92601 11.1998 5.91008 6.05416 17.4564 5.91012 
6.48604 15.7704 8.8369 8.6323 12.9193 8.83841 7.53364 14.3382 5.90821 
8.4635 12.8686 2.95237 6.53797 15.7943 2.94945 4.57042 18.1054 4.28007 
4.62914 18.0151 7.48734 6.20241 16.4458 7.45561 6.36822 17.5114 8.90126 
10.5054 10.5969 4.23466 8.85755 12.2199 7.44892 10.5087 10.6162 7.57284 
8.69662 11.1992 8.90859 7.60504 14.375 8.87163 7.91231 13.5711 7.38613 
8.46792 12.8741 5.90479 7.1075 15.0782 7.38188 6.61887 15.8027 5.90685 
8.8312 12.2122 4.38508 8.86494 11.1812 2.94775 10.3909 10.6984 1.63196 
8.84679 12.2009 1.51369 7.9557 13.5952 1.47152 6.20592 16.4429 4.35433 
6.33681 17.5154 2.96336 7.10352 15.0787 1.47009 6.23151 16.4578 1.54803 
4.62208 18.0603 1.65203 7.54164 14.3398 2.9502 7.10391 15.0786 4.43007 
7.96314 13.5954 4.42841 1.55564 4.06139 0 8.44436 4.06139 0 
6.72218 1.07849 0 3.27782 1.07849 0 5 4.06139 0 
3.27782 7.04429 0 6.72218 7.04429 0 9.30545 5.55284 0 
9.30545 2.56994 0 7.58327 2.56994 0 8.44436 1.07849 0 
0.694553 5.55284 0 2.41673 2.56994 0 0.694553 2.56994 0 
1.55564 1.07849 0 5 1.07849 0 4.13891 2.56994 0 
3.27782 4.06139 0 5.86109 2.56994 0 6.72218 4.06139 0 
2.41673 5.55284 0 1.55564 7.04429 0 0.694553 8.53574 0 
2.41673 8.53574 0 4.13891 8.53574 0 7.58327 5.55284 0 
8.44436 7.04429 0 5.86109 8.53574 0 7.58327 8.53574 0 
9.30545 8.53574 0 5 7.04429 0 5.86109 5.55284 0 
4.13891 5.55284 0 4.03109 0 1.51795 4.03109 0 8.48205 
1.01554 0 6.74103 1.01554 0 3.25897 4.03109 0 5 
7.04663 0 3.25897 7.04663 0 6.74103 5.53886 0 9.35256 
2.52332 0 9.35256 2.52332 0 7.61154 1.01554 0 8.48205 
5.53886 0 0.647436 2.52332 0 2.38846 2.52332 0 0.647436 
1.01554 0 1.51795 1.01554 0 5 2.52332 0 4.12949 
4.03109 0 3.25897 2.52332 0 5.87051 4.03109 0 6.74103 
5.53886 0 2.38846 7.04663 0 1.51795 8.55441 0 0.647436 
8.55441 0 2.38846 8.55441 0 4.12949 5.53886 0 7.61154 
7.04663 0 8.48205 8.55441 0 5.87051 8.55441 0 7.61154 
8.55441 0 9.35256 7.04663 0 5 5.53886 0 5.87051 
5.53886 0 4.12949 1.55564 4.06139 10 8.44436 4.06139 10 
6.72218 1.07849 10 3.27782 1.07849 10 5 4.06139 10 
3.27782 7.04429 10 6.72218 7.04429 10 9.30545 5.55284 10 
9.30545 2.56994 10 7.58327 2.56994 10 8.44436 1.07849 10 
0.694553 5.55284 10 2.41673 2.56994 10 0.694553 2.56994 10 
1.55564 1.07849 10 5 1.07849 10 4.13891 2.56994 10 
3.27782 4.06139 10 5.86109 2.56994 10 6.72218 4.06139 10 
2.41673 5.55284 10 1.55564 7.04429 10 0.694553 8.53574 10 
2.41673 8.53574 10 4.13891 8.53574 10 7.58327 5.55284 10 
8.44436 7.04429 10 5.86109 8.53574 10 7.58327 8.53574 10 
9.30545 8.53574 10 5 7.04429 10 5.86109 5.55284 10 
4.13891 5.55284 10 3.44598 11.1207 10 6.57624 11.1207 10 
5.01111 13.8316 10 7.35881 12.4762 10 8.14137 11.1207 10 
2.66342 12.4762 10 1.88085 11.1207 10 5.01111 11.1207 10 
4.22855 12.4762 10 3.44598 13.8316 10 5.79368 12.4762 10 
6.57624 13.8316 10 5.01111 16.5425 10 5.79368 15.1871 10 
4.22855 15.1871 10 3.44598 11.1207 0 6.57624 11.1207 0 
5.01111 13.8316 0 7.35881 12.4762 0 8.14137 11.1207 0 
2.66342 12.4762 0 1.88085 11.1207 0 5.01111 11.1207 0 
4.22855 12.4762 0 3.44598 13.8316 0 5.79368 12.4762 0 
6.57624 13.8316 0 5.01111 16.5425 0 5.79368 15.1871 0 
4.22855 15.1871 0 0 5.96891 1.51795 0 5.96891 8.48205 
0 8.98446 6.74103 0 8.98446 3.25897 0 5.96891 5 
0 2.95337 3.25897 0 2.95337 6.74103 0 4.46114 9.35256 
0 7.47668 9.35256 0 7.47668 7.61154 0 8.98446 8.48205 
0 4.46114 0.647436 0 7.47668 2.38846 0 7.47668 0.647436 
0 8.98446 1.51795 0 8.98446 5 0 7.47668 4.12949 
0 5.96891 3.25897 0 7.47668 5.87051 0 5.96891 6.74103 
0 4.46114 2.38846 0 2.95337 1.51795 0 1.44559 0.647436 
0 1.44559 2.38846 0 1.44559 4.12949 0 4.46114 7.61154 
0 2.95337 8.48205 0 1.44559 5.87051 0 1.44559 7.61154 
0 1.44559 9.35256 0 2.95337 5 0 4.46114 5.87051 
0 4.46114 4.12949 10.0111 9.99269 4.3453 10.0111 9.99269 0.682766 
10.0111 9.99269 8.00784 3.61952 17.5937 5.92965 0.991006 11.275 5.90625 
1.85215 12.7856 8.88836 3.78084 15.7309 8.83102 2.50645 14.341 5.90787 
3.50605 15.8039 2.94491 1.60072 12.8773 2.94816 0.340631 10.5862 4.42136 
0.286236 10.6208 7.39229 1.18452 12.155 7.37485 0.699711 11.0293 8.86173 
5.47016 18.0441 4.24806 3.9315 16.3496 7.4572 5.33929 17.7574 7.46347 
3.39314 17.4942 8.95353 2.39213 14.3579 8.85692 2.83889 15.138 7.38243 
3.5776 15.7929 5.90373 2.10221 13.601 7.39415 1.5989 12.8744 5.90862 
3.9101 16.4228 4.37153 3.67753 17.5195 2.97409 5.37559 17.9969 1.6255 
3.79604 16.4312 1.55145 2.96723 15.0722 1.47004 1.1591 12.1579 4.43165 
1.02144 11.3449 2.94683 2.10235 13.5943 1.47099 1.21939 12.1306 1.48199 
0.421069 10.6568 1.45231 2.50894 14.3439 2.95237 2.13013 13.5855 4.42891 
2.89444 15.1043 4.42726 
POLYGONS 725 2172
OFFSETS vtktypeint64
0 3 6 9 12 15 18 21 24 
27 30 33 36 39 42 45 48 51 
54 57 60 63 66 69 72 75 78 
81 84 87 90 93 96 99 102 105 
108 111 114 117 120 123 126 129 132 
135 138 141 144 147 150 153 156 159 
162 165 168 171 174 177 180 183 186 
189 192 195 198 201 204 207 210 213 
216 219 222 225 228 231 234 237 240 
243 246 249 252 255 258 261 264 267 
270 273 276 279 282 285 288 291 294 
297 300 303 306 309 312 315 318 321 
324 327 330 333 336 339 342 345 348 
351 354 357 360 363 366 369 372 375 
378 381 384 387 390 393 396 399 402 
405 408 411 414 417 420 423 426 429 
432 435 438 441 444 447 450 453 456 
459 462 465 468 471 474 477 480 483 
486 489 492 495 498 501 504 507 510 
513 516 519 522 525 528 531 534 537 
540 543 546 549 552 555 558 561 564 
567 570 573 576 579 582 585 588 591 
594 597 600 603 606 609 612 615 618 
621 624 627 630 633 636 639 642 645 
648 651 654 657 660 663 666 669 672 
675 678 681 684 687 690 693 696 699 
702 705 708 711 714 717 720 723 726 
729 732 735 738 741 744 747 750 753 
756 759 762 765 768 771 774 777 780 
783 786 789 792 795 798 801 804 807 
810 813 816 819 822 825 828 831 834 
837 840 843 846 849 852 855 858 861 
864 867 870 873 876 879 882 885 888 
891 894 897 900 903 906 909 912 915 
918 921 924 927 930 933 936 939 942 
945 948 951 954 957 960 963 966 969 
972 975 978 981 984 987 990 993 996 
999 1002 1005 1008 1011 1014 1017 1020 1023 
1026 1029 1032 1035 1038 1041 1044 1047 1050 
1053 1056 1059 1062 1065 1068 1071 1074 1077 
1080 1083 1086 1089 1092 1095 1098 1101 1104 
1107 1110 1113 1116 1119 1122 1125 1128 1131 
1134 1137 1140 1143 1146 1149 1152 1155 1158 
1161 1164 1167 1170 1173 1176 1179 1182 1185 
1188 1191 1194 1197 1200 1203 1206 1209 1212 
1215 1218 1221 1224 1227 1230 1233 1236 1239 
1242 1245 1248 1251 1254 1257 1260 1263 1266 
1269 1272 1275 1278 1281 1284 1287 1290 1293 
1296 1299 1302 1305 1308 1311 1314 1317 1320 
1323 1326 1329 1332 1335 1338 1341 1344 1347 
1350 1353 1356 1359 1362 1365 1368 1371 1374 
1377 1380 1383 1386 1389 1392 1395 1398 1401 
1404 1407 1410 1413 1416 1419 1422 1425 1428 
1431 1434 1437 1440 1443 1446 1449 1452 1455 
1458 1461 1464 1467 1470 1473 1476 1479 1482 
1485 1488 1491 1494 1497 1500 1503 1506 1509 
1512 1515 1518 1521 1524 1527 1530 1533 1536 
1539 1542 1545 1548 1551 1554 1557 1560 1563 
1566 1569 1572 1575 1578 1581 1584 1587 1590 
1593 1596 1599 1602 1605 1608 1611 1614 1617 
1620 1623 1626 1629 1632 1635 1638 1641 1644 
1647 1650 1653 1656 1659 1662 1665 1668 1671 
1674 1677 1680 1683 1686 1689 1692 1695 1698 
1701 1704 1707 1710 1713 1716 1719 1722 1725 
1728 1731 1734 1737 1740 1743 1746 1749 1752 
1755 1758 1761 1764 1767 1770 1773 1776 1779 
1782 1785 1788 1791 1794 1797 1800 1803 1806 
1809 1812 1815 1818 1821 1824 1827 1830 1833 
1836 1839 1842 1845 1848 1851 1854 1857 1860 
1863 1866 1869 1872 1875 1878 1881 1884 1887 
1890 1893 1896 1899 1902 1905 1908 1911 1914 
1917 1920 1923 1926 1929 1932 1935 1938 1941 
1944 1947 1950 1953 1956 1959 1962 1965 1968 
1971 1974 1977 1980 1983 1986 1989 1992 1995 
1998 2001 2004 2007 2010 2013 2016 2019 2022 
2025 2028 2031 2034 2037 2040 2043 2046 2049 
2052 2055 2058 2061 2064 2067 2070 2073 2076 
2079 2082 2085 2088 2091 2094 2097 2100 2103 
2106 2109 2112 2115 2118 2121 2124 2127 2130 
2133 2136 2139 2142 2145 2148 2151 2154 2157 
2160 2163 2166 2169 2172 
CONNECTIVITY vtktypeint64
26 126 27 28 27 107 109 108 101 
102 110 109 108 109 110 29 110 3 
25 102 24 3 110 25 110 102 25 
28 108 29 108 110 29 107 101 28 
101 108 28 111 121 19 20 111 19 
113 112 100 114 103 112 113 21 114 
112 113 114 22 114 2 114 22 103 
23 103 22 2 114 21 21 113 20 
100 111 20 113 100 20 115 103 23 
102 115 24 115 23 24 116 112 103 
117 100 112 104 117 116 112 116 117 
109 118 102 119 104 118 101 119 109 
118 109 119 116 118 104 115 102 118 
103 115 116 118 116 115 120 111 100 
105 121 120 111 120 121 19 121 18 
18 122 0 124 123 105 123 124 15 
14 0 122 15 14 123 122 123 14 
121 105 123 122 18 121 123 122 121 
107 125 101 126 106 125 107 27 126 
125 107 126 128 127 106 16 127 128 
124 127 16 128 17 16 1 129 26 
129 126 26 17 128 129 129 1 17 
106 126 128 129 128 126 16 15 124 
130 106 127 105 130 124 127 124 130 
131 125 106 119 101 125 104 119 131 
125 131 119 120 132 105 117 104 132 
100 117 120 132 120 117 131 132 104 
130 105 132 106 130 131 132 131 130 
39 40 159 134 140 41 142 134 141 
135 142 143 141 143 142 42 6 143 
38 135 143 135 38 37 6 38 143 
41 42 141 141 42 143 40 41 140 
134 41 141 144 31 154 32 31 144 
146 133 145 147 145 136 146 147 33 
145 147 146 148 35 136 34 5 147 
34 136 35 136 34 147 5 33 147 
33 32 146 133 32 144 146 32 133 
35 148 36 148 37 36 149 136 145 
37 148 135 150 145 133 137 149 150 
145 150 149 142 135 151 152 151 137 
134 142 152 151 152 142 149 137 151 
148 151 135 136 149 148 151 148 149 
153 133 144 138 153 154 144 154 153 
31 30 154 30 4 155 157 138 156 
157 156 44 4 43 155 43 44 156 
157 44 45 156 155 43 154 156 138 
155 154 30 156 154 155 140 134 158 
159 158 139 140 159 40 158 159 140 
161 139 160 160 46 161 46 47 161 
161 47 162 7 39 162 162 39 159 
47 7 162 139 161 159 162 159 161 
163 160 139 157 45 160 160 45 46 
138 157 163 160 163 157 164 139 158 
152 158 134 137 164 152 158 152 164 
153 138 165 150 165 137 133 153 150 
165 150 153 164 137 165 163 165 138 
139 164 163 165 163 164 21 20 192 
19 173 20 175 167 174 168 175 176 
174 176 175 18 0 176 55 54 168 
0 55 176 176 55 168 19 18 174 
174 18 176 173 19 167 167 19 174 
177 50 187 49 50 177 179 166 178 
180 178 169 179 180 48 178 180 179 
52 8 180 180 169 52 53 52 169 
8 48 180 48 49 179 166 49 177 
179 49 166 181 53 169 54 53 181 
168 54 181 182 169 178 183 178 166 
170 182 183 178 183 182 175 168 184 
185 184 170 167 175 185 184 185 175 
182 170 184 181 184 168 169 182 181 
184 181 182 186 166 177 171 186 187 
177 187 186 50 51 187 51 9 188 
190 171 189 190 189 57 9 56 188 
56 57 189 190 57 58 189 188 56 
187 189 171 188 187 51 189 187 188 
173 167 191 192 191 172 173 192 20 
191 192 173 194 172 193 193 59 194 
59 60 194 194 60 195 2 21 195 
195 21 192 60 2 195 172 194 192 
195 192 194 196 193 172 190 58 193 
193 58 59 171 190 196 193 196 190 
197 172 191 185 191 167 170 197 185 
191 185 197 186 171 198 183 198 170 
166 186 183 198 183 186 197 170 198 
196 198 171 172 197 196 198 196 197 
68 67 225 66 206 67 208 200 207 
201 208 209 207 209 208 65 10 209 
64 63 201 10 64 209 209 64 201 
66 65 207 207 65 209 206 66 200 
200 66 207 210 54 220 53 54 210 
212 199 211 213 211 202 212 213 52 
211 213 212 61 8 213 213 202 61 
62 61 202 8 52 213 52 53 212 
199 53 210 212 53 199 214 62 202 
201 63 214 214 63 62 215 202 211 
216 211 199 203 215 216 211 216 215 
208 201 217 218 217 203 200 208 218 
217 218 208 215 203 217 214 217 201 
202 215 214 217 214 215 219 199 210 
204 219 220 210 220 219 54 55 220 
55 0 221 223 204 222 222 15 223 
14 221 0 15 222 14 221 14 222 
220 222 204 221 220 55 222 220 221 
206 200 224 225 224 205 206 225 67 
224 225 206 227 205 226 16 227 226 
223 16 226 227 16 17 1 68 228 
228 68 225 228 17 1 17 228 227 
205 227 225 228 225 227 16 223 15 
229 226 205 204 223 229 226 229 223 
230 205 224 218 224 200 203 230 218 
224 218 230 219 204 231 216 231 203 
199 219 216 231 216 219 230 203 231 
229 231 204 205 230 229 231 229 230 
60 59 72 72 59 71 60 11 2 
72 11 60 58 57 70 69 57 9 
56 9 57 69 70 57 70 71 58 
59 58 71 29 258 28 27 28 239 
241 240 233 234 242 241 240 241 242 
26 242 1 68 234 67 1 242 68 
242 234 68 27 240 26 240 242 26 
239 233 27 233 240 27 243 253 75 
74 243 75 245 244 232 246 235 244 
245 73 246 244 245 246 65 246 10 
246 65 235 66 235 65 10 246 73 
73 245 74 232 243 74 245 232 74 
247 235 66 67 247 66 234 247 67 
248 244 235 249 232 244 236 249 248 
244 248 249 241 250 234 251 236 250 
233 251 241 250 241 251 248 250 236 
247 234 250 235 247 248 250 248 247 
252 243 232 237 253 252 243 252 253 
75 253 76 76 254 12 256 255 237 
256 78 255 12 254 77 77 255 78 
256 79 78 255 77 254 253 237 255 
254 76 253 255 254 253 239 257 233 
258 238 257 239 28 258 257 239 258 
260 259 238 259 260 80 80 260 81 
260 261 81 3 261 29 261 258 29 
81 261 3 238 258 260 261 260 258 
262 238 259 256 259 79 259 80 79 
237 262 256 259 256 262 263 257 238 
251 233 257 236 251 263 257 263 251 
252 264 237 249 236 264 232 249 252 
264 252 249 263 264 236 262 237 264 
238 262 263 264 263 262 81 85 80 
85 84 80 81 3 13 85 81 13 
79 83 78 82 12 78 77 78 12 
82 78 83 83 79 84 80 84 79 
266 269 268 268 269 35 268 35 36 
34 269 85 35 269 34 5 13 3 
34 85 13 266 84 85 266 272 84 
85 269 266 13 5 34 271 265 270 
90 271 89 270 89 271 12 82 271 
84 272 83 271 90 12 265 271 82 
82 83 265 265 83 272 273 270 265 
270 274 88 267 274 273 270 273 274 
268 275 266 276 267 275 36 276 268 
275 268 276 273 275 267 272 266 275 
265 272 273 275 273 272 86 38 6 
277 86 87 277 38 86 267 276 278 
37 38 277 37 278 276 276 36 37 
274 267 279 274 279 87 87 88 274 
88 89 270 278 279 267 87 279 277 
277 278 37 279 278 277 281 283 284 
283 44 284 283 45 44 43 72 284 
44 43 284 4 2 11 43 11 72 
281 72 71 281 71 287 72 281 284 
11 43 4 286 285 280 95 94 286 
285 286 94 9 286 69 71 70 287 
286 9 95 280 69 286 69 280 70 
280 287 70 288 280 285 285 93 289 
282 288 289 285 289 288 283 281 290 
291 290 282 45 283 291 290 291 283 
288 282 290 287 290 281 280 288 287 
290 287 288 91 7 47 292 92 91 
292 91 47 282 293 291 46 292 47 
46 291 293 291 46 45 289 294 282 
289 92 294 92 289 93 93 285 94 
293 282 294 92 292 294 292 46 293 
294 292 293 73 74 321 75 302 74 
304 296 303 297 304 305 303 305 304 
76 12 305 99 98 297 12 99 305 
305 99 297 75 76 303 303 76 305 
302 75 296 296 75 303 306 49 316 
50 49 306 308 295 307 309 307 298 
308 309 51 307 309 308 96 9 309 
309 298 96 97 96 298 9 51 309 
51 50 308 295 50 306 308 50 295 
310 97 298 297 98 310 310 98 97 
311 298 307 312 307 295 299 311 312 
307 312 311 304 297 313 314 313 299 
296 304 314 313 314 304 311 299 313 
310 313 297 298 311 310 313 310 311 
315 295 306 300 315 316 306 316 315 
49 48 316 48 8 317 319 300 318 
318 62 319 61 317 8 62 318 61 
317 61 318 316 318 300 317 316 48 
318 316 317 302 296 320 321 320 301 
302 321 74 320 321 302 323 301 322 
63 323 322 319 63 322 323 63 64 
10 73 324 324 73 321 64 324 323 
324 64 10 301 323 321 324 321 323 
63 319 62 325 322 301 300 319 325 
322 325 319 326 301 320 314 320 296 
299 326 314 320 314 326 315 300 327 
312 327 299 295 315 312 327 312 315 
326 299 327 325 327 300 301 326 325 
327 325 326 22 2 329 2 4 329 
23 22 31 24 23 328 23 31 328 
4 30 329 329 30 22 22 30 31 
3 330 5 330 3 25 31 32 328 
24 33 25 328 32 24 24 32 33 
330 33 5 330 25 33 96 97 357 
98 338 97 340 332 339 333 340 341 
339 341 340 99 12 341 90 333 341 
333 90 89 12 90 341 98 99 339 
339 99 341 338 98 332 332 98 339 
342 40 352 41 40 342 344 331 343 
345 343 334 344 345 42 343 345 344 
346 87 334 86 6 345 86 334 87 
334 86 345 6 42 345 42 41 344 
331 41 342 344 41 331 87 346 88 
346 89 88 347 334 343 89 346 333 
348 343 331 335 347 348 343 348 347 
340 333 349 350 349 335 332 340 350 
349 350 340 347 335 349 346 349 333 
334 347 346 349 346 347 351 331 342 
336 351 352 342 352 351 40 39 352 
39 7 353 355 336 354 355 354 92 
7 91 353 91 92 354 355 92 93 
354 353 91 352 354 336 353 352 39 
354 352 353 338 332 356 357 356 337 
338 357 97 356 357 338 359 337 358 
358 94 359 94 95 359 359 95 360 
9 96 360 360 96 357 95 9 360 
337 359 357 360 357 359 361 358 337 
355 93 358 358 93 94 336 355 361 
358 361 355 362 337 356 350 356 332 
335 362 350 356 350 362 351 336 363 
348 363 335 331 351 348 363 348 351 
362 335 363 361 363 336 337 362 361 
363 361 362 
CELL_DATA 724
SCALARS scalars double
LOOKUP_TABLE default
7.07 7.07 7.07 7.07 7.07 7.07 7.07 7.07 7.07 
7.07 7.07 7.07 7.07 7.07 7.07 7.07 7.07 7.07 
7.07 7.07 7.07 7.07 7.07 7.07 7.07 7.07 7.07 
7.07 7.07 7.07 7.07 7.07 7.07 7.07 7.07 7.07 
7.07 7.07 7.07 7.07 7.07 7.07 7.07 7.07 7.07 
7.07 7.07 7.07 7.07 7.07 7.07 7.07 7.07 7.07 
7.07 7.07 7.07 7.07 7.07 7.07 7.07 7.07 7.07 
7.07 7.07 7.07 7.07 7.07 7.07 7.07 7.07 7.07 
7.07 7.07 7.07 7.07 7.07 7.07 7.07 7.07 7.07 
7.07 7.07 7.07 9.9855047113 7.934801858 9.3079277499 7.4664918145 8.6330075576 9.9569981517 
6.3950019169 9.6895568766 7.8452476913 3.2474421597 2.6414934916 0.94701311492 7.465206587 2.3757980875 1.1821837582 
9.1753018064 7.29660909 1.8478439005 8.9970037721 9.5533338062 8.3586987194 9.5537051311 6.3048025389 10.789129991 
1.0877501061 9.2560780532 9.0723761092 9.5620714339 9.5377759351 9.7227575811 9.7860238686 8.6087583763 9.7434655996 
9.8415909021 9.7437831855 9.7396730042 8.910012259 9.797989113 9.5653402438 9.9332253622 9.7560839885 9.541383865 
9.2157878544 8.4300477368 9.3261058902 10.169040673 3.7482864335 9.7601392533 9.761553644 9.3003709851 9.3200229233 
9.6660013644 9.6136226889 8.4155969113 4.3431354095 9.254258284 9.3418892503 7.7074868102 -0 8.6053611028 
9.7255303759 9.7520213587 9.576917363 9.8219910793 2.9274122501 0.85588261291 8.8841200019 7.7504783147 8.8425895895 
9.8266067197 9.6520919449 9.6746203044 9.7405545741 9.651767704 9.7726568123 8.9140988333 9.7401209987 9.7929816297 
9.7418342617 9.7600943807 8.6295688376 9.7441196818 9.6615746716 9.7418783618 9.8264786399 9.6614052372 -0 
-0 -0 -0 -0 -0 -0 -0 -0 -0 
-0 -0 -0 -0 -0 -0 -0 -0 -0 
-0 -0 -0 -0 -0 -0 -0 -0 -0 
-0 -0 -0 -0 -0 -0 -0 -0 -0 
-0 -0 -0 -0 -0 -0 -0 -0 0.00053238705486 
-0 -0 0.00050180145005 -0 -0 -0 -0 -0 -0 
-0 -0 -0 -0 -0 -0 -0 -0 -0 
-0 -0 -0 -0 -0 -0 -0 -0 -0 
-0 -0 -0 -0 -0 -0 -0 -0 -0 
-0 -0 -0 -0 -0 -0 -0 -0 -0 
-0 -0 -0 -0 -0 -0 -0 -0 -0 
-0 -0 -0 -0 -0 -0 -0 -0 -0 
-0 -0 -0 -0 -0 -0 -0 -0 -0 
-0 -0 -0 -0 -0 -0 -0 -0 -0 
-0 -0 -0 -0 -0 -0 -0 -0 -0 
-0 -0 -0 -0 -0 -0 -0 -0 -0 
-0 -0 -0 -0 -0 -0 -0 -0 -0 
-0 -0 -0 -0 -0 -0 -0 -0 -0 
-0 -0 -0 -0 -0 -0 -0 -0 -0 
-0 -0 -0 0.0037483626838 -0 -0 -0 -0 -0 
-0 -0 -0 -0 -0 -0 -0 -0 -0 
-0 -0 -0 -0 -0 -0 -0 -0 -0 
-0 -0 -0 -0 -0 -0 -0 -0 -0 
-0 -0 -0 -0 -0 -0 -0 -0 -0 
-0 -0 -0 -0 -0 -0 -0 11.156062724 -0 
-0 9.7740824483 -0 -0 -0 -0 -0 -0 -0 
-0 -0 -0 -0 -0 -0 -0 -0 -0 
-0 -0 -0 -0 -0 -0 -0 -0 -0 
-0 -0 -0 -0 -0 -0 -0 -0 -0 
-0 -0 -0 -0 -0 -0 -0 -0 14.139996178 
-0 -0 -0 -0 0.034277567244 0.034141420662 0.024740653394 0.035613802267 0.26988668418 
0.041794366183 -0 -0 -0 0.38917133783 -0 0.048053139725 0.031059436745 6.2473769576 
-0 -0 -0 -0 -0 -0 0.036055857389 -0 -0 
-0 -0 0.033750028677 -0 -0 -0 -0 -0 -0 
0.030551758099 0.055425214247 -0 0.021585965664 0.031821100673 0.033361946589 -0 0.035467646978 0.035936737663 
0.032298901081 -0 0.035467646978 0.031821100673 -0 -0 0.046785966009 -0 0.071019211002 
-0 0.74099596365 -0 -0 -0 -0 0.19770649628 -0 0.010121721251 
0.071943153501 0.00020277318126 -0 -0 -0 -0 -0 -0 0.091382375795 
-0 -0 -0 -0 0.080750993161 -0 -0 -0 -0 
-0 -0 -0 -0 -0 -0 0.1179815187 -0 -0 
0.11910576839 0.026083747195 0.026763836968 -0 0.11910576839 0.1179815187 -0 7.07 7.07 
7.07 7.07 7.07 7.0628610959 0.13233172389 9.0380280901 4.3478921524 7.07 7.07 
7.07 7.07 7.07 7.07 7.07 7.07 7.07 7.07 0.66315619752 
-0 -0 6.5168724401 7.07 7.07 7.07 -0 -0 -0 
7.07 7.07 7.07 7.07 7.07 7.07 7.07 7.07 7.07 
7.07 7.07 7.07 7.07 7.07 7.07 7.07 7.07 7.07 
7.07 7.07 7.07 7.07 7.07 7.07 7.07 7.07 7.07 
7.07 7.07 7.07 7.07 7.07 7.07 7.07 7.07 7.07 
7.07 7.07 7.07 7.07 7.07 7.07 7.07 7.07 7.07 
7.07 7.07 7.07 7.07 7.07 7.07 7.07 7.07 7.07 
7.07 -0 -0 -0 -0 -0 -0 -0 -0 
-0 -0 -0 -0 -0 -0 -0 -0 9.9949208943 
9.9960414293 9.5023273271 9.6898763094 9.6260110745 -0 9.7789937434 9.0544515164 -0 9.9973660059 
9.9984257332 10.003876355 9.9997534622 -0 1.1123293759 8.1167189677 5.3947520397 4.0549788109 7.8420312095 
9.3624463759 6.5036970763 9.2305361952 3.8266237059 10.792408197 5.7602028328 8.6118247537 7.9299636143 9.4156318049 
9.6989067624 9.7543988539 8.7302648288 7.0414609989 9.7915957203 9.9609214041 9.6458156549 9.7276881304 9.0845958079 
9.7542501905 9.4263208482 8.9829911471 9.9433818307 9.4208493959 8.4069547863 7.4983838312 8.4147533852 10.268858843 
4.5404808807 9.6956763463 9.7100371377 8.8752529166 9.5781586548 9.6785598643 9.8011007146 7.6567068042 2.0793766085 
8.738514408 9.3906723666 9.0618827739 9.9937687556 9.4023649245 9.697275042 9.7056563725 9.6620680407 9.5828607563 
9.8758941127 10.015280398 9.6269074466 9.0948080988 9.4904774476 9.7279355222 9.6703779084 9.6494815287 9.8234695703 
9.6710880207 9.8186999767 9.0691498252 9.7188534956 9.8185485038 9.9058761595 9.8422842044 7.1037239087 9.8870790342 
9.4934973819 9.7977129027 9.7195490387 9.4935220783 
