# vtk DataFile Version 5.1
vtk output
ASCII
DATASET POLYDATA
POINTS 356 float
0.546305 0.49934 0.250153 0.54878 0.606233 8.96223 0.716433 8.44013 0.380028 
0.800926 8.54773 8.81346 8.72639 0.750407 0.316028 8.65792 0.785224 8.7412 
8.84952 8.4133 0.396407 8.75442 8.39376 8.81006 0.044534 0.271086 1.3667 
-0.448296 -0.250626 2.55207 -0.610506 -0.35257 4.15959 -0.619194 -0.279856 5.73262 
-0.356047 -0.0634939 7.01934 0.223005 0.368244 7.86283 0.0982846 1.38949 0.214845 
-0.0943328 2.46201 -0.423791 -0.270838 4.05207 -0.409267 -0.380312 5.78477 -0.34162 
-0.240152 7.13431 -0.177735 0.571379 7.82949 -0.0292291 0.485208 8.51446 1.35926 
0.00777332 8.78269 2.75217 -0.0678191 8.70997 4.18333 -0.18049 8.91659 5.67133 
0.225424 8.71621 6.92557 0.495367 8.76367 8.02645 0.193651 1.36509 8.70806 
0.0429297 2.40893 9.31379 -0.21142 4.0832 9.31293 -0.159553 5.88619 9.28838 
0.141076 7.06438 8.96388 0.54224 8.09206 9.27307 9.12754 0.268134 1.04015 
9.37607 -0.20068 2.38196 9.47868 -0.380721 4.05403 9.4938 -0.370927 5.71246 
9.41454 -0.164276 7.24877 9.18251 0.304908 8.39784 9.04174 1.41469 0.314876 
9.00571 2.47927 -0.374683 9.27159 4.15537 -0.307357 9.09531 5.79965 -0.326094 
9.21347 7.08 0.0210394 8.7435 7.97025 0.09796 8.76201 8.61432 1.29465 
8.95551 8.81265 2.57886 9.16687 8.83244 4.12575 9.16772 8.8947 5.71584 
8.89323 8.84765 7.02447 8.8244 8.56748 8.06599 8.89145 1.36494 8.87888 
9.06477 2.56372 9.34375 9.1525 4.13441 9.20842 9.15782 5.8105 9.22482 
9.22172 7.06512 8.97656 8.66096 7.87007 8.9381 1.53646 0.471453 -0.158394 
2.70561 -0.133078 -0.163342 4.39162 -0.173232 -0.42334 5.85642 -0.0582593 -0.462208 
7.02462 0.224007 -0.198874 8.07419 0.443754 -0.00147161 1.54584 0.748912 8.92104 
2.59534 -0.0177185 9.15665 4.428 0.0484211 9.08458 5.90926 0.0207942 9.26816 
7.0816 0.313224 8.9989 8.06208 0.676049 9.01607 1.48331 8.54963 -0.175784 
2.50707 9.05171 -0.2163 4.35866 9.20271 -0.468439 5.86115 9.09041 -0.475125 
7.16427 8.8596 -0.312639 8.1145 8.70423 0.0741892 1.47537 8.62749 9.29924 
2.57891 9.06967 9.23904 4.34089 9.21851 9.45449 5.88209 9.07882 9.48115 
7.16999 8.82333 9.26446 8.12428 8.55629 8.99817 -1.08806 0.239444 4.96233 
-1.44485 6.03453 1.69915 -1.32473 6.04205 7.63762 -0.713999 0.495907 7.79016 
-0.679997 0.620086 1.76157 -0.644683 3.19506 8.53851 0.120078 7.85269 8.42454 
-0.625638 8.17481 6.37416 -0.81562 3.25072 0.525251 -0.710067 8.10181 3.3307 
-0.172708 7.98571 0.612168 -1.75233 5.91719 4.90888 -1.73618 2.93646 3.23589 
-1.74361 2.94453 6.47276 -0.125968 0.724752 8.62695 -0.948375 0.378758 6.42245 
-0.983992 0.369105 3.35294 -0.137004 0.695951 0.526415 -1.02438 4.85616 8.59448 
-0.766054 6.2562 8.55878 -0.730953 7.09028 8.07734 -1.14194 7.13989 6.99118 
-0.434698 8.04851 7.56343 -1.15638 4.7853 0.696527 -0.95499 6.157 0.554062 
-1.25627 7.17739 2.55758 -0.715324 7.03057 1.28416 -0.582379 8.02142 1.96453 
-0.775497 8.18164 4.9525 -1.3251 7.20093 4.15921 -1.70777 5.94626 3.23721 
-1.365 7.16519 5.6697 -1.72416 6.00284 6.42938 -1.7464 4.51793 2.43905 
-1.45882 3.1174 1.72276 -0.791985 1.36181 0.910527 -1.37577 1.07497 2.50335 
-1.57558 0.901542 4.16929 -1.58857 4.60706 7.15456 -1.4789 3.05551 7.68145 
-1.49599 0.841559 5.73342 -1.11303 1.0239 6.99223 -0.679979 1.38823 8.30049 
-1.83691 2.90899 4.95016 -1.89463 4.48138 5.72266 -2.0052 4.45744 4.10221 
9.52984 0.411707 4.89043 9.99534 5.88312 1.74618 9.98042 5.90423 7.64249 
9.24682 0.85021 7.63113 9.19832 0.847335 1.88776 9.36195 3.19476 8.49184 
9.06434 7.73326 8.50559 9.59273 8.03761 6.41819 9.34801 3.23706 0.650938 
9.68015 8.07087 3.30807 9.18814 7.82356 0.755188 10.0486 5.8238 4.92636 
10.0882 2.97819 3.33182 10.1105 2.89317 6.43391 9.00964 1.03104 8.60257 
9.53465 0.568688 6.42184 9.48513 0.514567 3.27783 9.15838 0.998913 0.61562 
9.83954 4.66119 8.53328 9.41651 6.083 8.42117 9.62396 7.0611 8.09261 
9.65196 7.03236 6.97985 9.41446 8.00403 7.57247 9.89637 4.70518 0.747463 
9.34517 6.05482 0.701856 9.67625 6.9695 2.65853 9.62912 6.99995 1.23917 
9.56371 8.00045 1.81159 9.54582 8.08847 4.98941 10.042 7.07788 4.10727 
10.196 5.8115 3.34013 10.0358 7.05473 5.69752 10.194 5.80597 6.50198 
9.94904 4.45795 2.55736 9.91266 2.94222 1.79394 9.62546 1.47978 1.05563 
9.72476 1.28735 2.59428 10.0591 1.08678 4.11103 9.91846 4.44998 7.06987 
9.85465 3.07708 7.63143 10.0009 1.11545 5.62039 9.80454 1.23095 7.06526 
9.61308 1.42067 8.29713 9.94106 2.91988 4.84739 10.2958 4.38896 5.6765 
10.2635 4.39917 4.15095 3.93934 -1.24458 1.59837 3.93363 -1.38338 7.76489 
8.74275 -0.776947 4.89405 8.58617 -0.233474 7.79184 8.58229 -0.408501 1.63993 
6.68089 -0.552319 8.63943 1.46117 -0.093861 8.56781 1.27348 -0.906592 6.40269 
6.63564 -0.685898 0.352214 1.25018 -0.927614 3.35118 1.38997 -0.237087 0.57306 
4.05669 -1.80543 4.9365 6.73372 -1.57269 3.16792 6.78611 -1.44513 6.66157 
8.3956 0.432755 8.53873 8.70724 -0.596434 6.49078 8.66149 -0.673862 3.23286 
8.48344 0.203479 0.480812 5.32614 -0.968588 8.44026 3.87539 -0.801123 8.61114 
2.69075 -0.687206 8.04292 2.64156 -1.40135 7.09676 1.26109 -0.796309 7.66538 
5.29062 -0.99001 0.574919 3.86458 -0.818624 0.416515 2.52383 -1.4041 2.44903 
2.66073 -0.947308 1.13754 1.19924 -0.732442 1.74447 1.18233 -1.19378 4.93699 
2.61143 -1.6204 4.10875 4.00707 -1.56107 3.19317 2.62435 -1.53326 5.74713 
4.00652 -1.67536 6.55588 5.36681 -1.65559 2.36225 6.62227 -1.10423 1.60668 
8.03918 -0.542423 0.724914 8.09639 -1.07566 2.34744 8.21197 -1.2491 4.06461 
5.42071 -1.57114 7.21233 6.72004 -1.09144 7.72605 8.29374 -1.28666 5.73708 
8.2288 -1.03764 7.31564 8.12719 -0.316509 8.5505 6.72274 -1.68976 4.98311 
5.46232 -1.81471 5.78378 5.39611 -1.83591 4.08888 3.89203 9.91707 1.88747 
3.85813 9.94899 7.63505 8.84421 9.49536 4.93224 8.68862 9.31652 7.74365 
8.65572 9.31127 1.79954 6.68047 9.18218 8.58509 1.46669 8.85845 8.40106 
1.14831 9.4214 6.33247 6.73397 9.68759 0.524062 1.0352 9.42889 3.40251 
1.28055 9.1023 0.741169 3.95842 10.1733 4.91189 6.83946 10.174 3.32899 
6.90509 9.99229 6.43731 8.57365 8.88215 8.6417 8.77982 9.52833 6.37037 
8.85453 9.5337 3.40024 8.60312 8.98295 0.596249 5.20668 9.68053 8.37518 
3.75642 9.30794 8.48029 2.57852 9.61505 8.1398 2.53631 9.62356 6.93543 
1.20881 9.37553 7.56336 5.25416 9.77919 0.93971 3.68479 9.81528 0.563338 
2.44662 9.89984 2.66373 2.54275 9.4477 1.25588 1.19334 9.26154 1.96338 
1.04171 9.48195 4.94101 2.47958 9.78806 4.14237 3.89265 10.2151 3.35928 
2.43937 10 5.61972 3.93189 10.1292 6.37041 5.42977 10.1249 2.61086 
6.81642 9.73156 1.86023 7.91156 9.28337 1.01077 8.02115 9.61107 2.64249 
8.13189 9.71663 4.15976 5.40752 9.79972 7.04154 6.82554 9.80864 7.76891 
8.11876 9.65886 5.66415 8.05093 9.38474 7.03099 8.01705 9.18542 8.31526 
6.87613 10.0355 4.8837 5.51384 10.3521 5.68866 5.42852 10.1915 4.16219 
1.63821 3.88532 -1.58536 7.77188 3.83458 -1.49272 5.09493 8.83288 -1.11055 
7.91809 8.60805 -0.771444 1.85479 8.41555 -0.733544 8.39477 6.51767 -0.674382 
8.39326 1.54997 -0.257669 6.55614 1.05522 -1.09093 0.630605 6.48114 -0.821572 
3.51392 1.21656 -1.15536 0.772764 1.33387 -0.611599 4.94534 3.98038 -1.99128 
3.18814 6.75416 -1.79571 6.65204 6.74977 -1.68492 8.60776 8.32006 -0.0525805 
6.62427 8.80415 -1.11525 3.37992 8.86451 -1.1393 0.79 8.40031 -0.286409 
8.4769 5.13991 -1.11759 8.4633 3.75702 -0.827343 8.14252 2.51332 -1.06653 
6.96098 2.52426 -1.26326 7.66191 1.23116 -0.826031 0.696008 5.1715 -1.235 
0.55527 3.74687 -0.983037 2.54534 2.50132 -1.47939 1.28111 2.60591 -1.08241 
1.96424 1.34052 -0.863699 5.05135 1.11456 -1.05891 4.1756 2.54317 -1.63599 
3.2605 3.93041 -1.82217 5.71989 2.45596 -1.76591 6.56922 3.90888 -1.82651 
2.4985 5.33617 -1.65255 1.70672 6.65361 -1.38187 1.12778 7.84227 -0.767096 
2.62997 7.97719 -1.21468 4.24749 8.15243 -1.35948 7.09719 5.37433 -1.66411 
7.74279 6.70955 -1.30674 5.85047 8.15725 -1.4084 7.17266 8.00658 -1.00087 
8.40482 7.86307 -0.559111 5.00126 6.8465 -1.88924 5.76772 5.44355 -2.03806 
4.09688 5.43091 -1.97785 1.78792 3.90357 9.92177 7.59564 3.88004 10.2376 
5.1296 8.60288 9.71242 7.7378 8.45391 9.64373 2.04872 8.22904 9.44165 
8.50673 6.54087 9.52688 8.34506 1.59632 9.10595 6.54229 1.16729 9.74979 
0.727246 6.62023 9.64211 3.45108 1.24067 9.70405 0.934245 1.54486 9.29564 
4.89896 4.01834 10.2477 3.31511 6.66638 10.1412 6.56377 6.78463 10.2799 
8.52614 8.21102 9.18646 6.52739 8.39723 9.61495 3.4972 8.46841 9.55752 
1.19705 8.03564 8.94384 8.50886 5.08456 9.91745 8.38988 3.67352 9.55048 
8.12924 2.5422 9.88658 6.93634 2.53977 9.90362 7.57258 1.31498 9.63997 
0.821832 5.24488 9.71791 0.696665 3.70441 9.59918 2.6879 2.54209 9.84675 
1.39226 2.6604 9.66946 2.02387 1.37863 9.57136 5.04704 1.03257 9.69964 
4.2312 2.47652 10.05 3.31024 3.94894 10.3423 5.6476 2.50847 10.2238 
6.46967 3.94967 10.2479 2.49595 5.33191 10.1036 1.83273 6.61854 9.8766 
1.26835 7.7871 9.60932 2.76021 7.8536 9.97868 4.28504 8.05235 10.0769 
7.09815 5.35497 10.2629 7.66791 6.60426 10.0372 5.74567 7.9927 10.0763 
7.1136 7.91584 9.83609 8.33891 7.78645 9.53703 4.9716 6.80316 10.2029 
5.71304 5.46734 10.4989 4.14687 5.46385 10.3034 
POLYGONS 709 2124
OFFSETS vtktypeint64
0 3 6 9 12 15 18 21 24 
27 30 33 36 39 42 45 48 51 
54 57 60 63 66 69 72 75 78 
81 84 87 90 93 96 99 102 105 
108 111 114 117 120 123 126 129 132 
135 138 141 144 147 150 153 156 159 
162 165 168 171 174 177 180 183 186 
189 192 195 198 201 204 207 210 213 
216 219 222 225 228 231 234 237 240 
243 246 249 252 255 258 261 264 267 
270 273 276 279 282 285 288 291 294 
297 300 303 306 309 312 315 318 321 
324 327 330 333 336 339 342 345 348 
351 354 357 360 363 366 369 372 375 
378 381 384 387 390 393 396 399 402 
405 408 411 414 417 420 423 426 429 
432 435 438 441 444 447 450 453 456 
459 462 465 468 471 474 477 480 483 
486 489 492 495 498 501 504 507 510 
513 516 519 522 525 528 531 534 537 
540 543 546 549 552 555 558 561 564 
567 570 573 576 579 582 585 588 591 
594 597 600 603 606 609 612 615 618 
621 624 627 630 633 636 639 642 645 
648 651 654 657 660 663 666 669 672 
675 678 681 684 687 690 693 696 699 
[...]
CELL_DATA 708
SCALARS scalars double
LOOKUP_TABLE default
-4.8818249685 -9.0929740339 -5.2407182199 -6.3312009333 -6.1470785761 -6.4858572935 -8.3235119106 -5.9961260677 -5.5746600334 
-5.4069420054 -6.25489458 -6.4246136171 -8.5398592149 -5.0510971768 1.708834058 1.5035239294 -1.2130786035 -1.9201683735 
3.5145333079 0.28976771575 3.4855187757 5.0063195987 5.2627298178 4.3785157584 6.2721137214 7.730982326 7.5542185919 
4.9798075164 5.1172326485 2.3538360467 2.925979581 4.2214894191 4.0138263323 -0.8667072374 -1.1973394711 0.95140562622 
-1.1626502281 -0.25837206522 0.63623802574 4.3029871337 5.7199681986 3.156603293 3.8506250613 7.2575561427 8.5382464906 
8.5623630983 7.6878732733 6.7643042094 3.2378287775 4.7837071534 4.4379975155 1.5343175714 5.6619986347 6.3366755242 
5.7294364779 6.9171974026 5.3529248922 7.6537859276 7.0679248637 2.6781671197 3.0514149336 3.2178862355 5.1247616201 
2.958402235 3.1987876987 3.8577196019 3.0630201848 5.4659451441 5.2453537487 4.957304939 0.34480748486 -1.3865493245 
-1.0265149891 -0.28200356307 -5.036093388 -2.47745141 -6.5018894521 -1.3806311623 -1.4548835863 -5.7284101953 -6.0960718123 
-6.1677486243 -5.4219058267 -1.1309898894 -1.0874508364 -1.772681452 0.51474676782 0.034946312259 -1.8129315524 0.54957996986 
-2.1882590204 -6.0261283249 -5.7047525122 -4.8825322013 -0.66880725713 -6.5229618245 -1.6571509692 1.001948304 0.94661438922 
-0.78630337671 -2.4721390674 -2.8523454702 -5.7767167091 -1.3879560074 -1.0586669353 -1.4603614862 0.056824839149 0.69551239458 
1.0561610775 0.13009096813 -0.85072134649 1.8297790384 1.1639471045 1.0979899645 1.350906249 -1.4043917356 -0.67302654203 
-0.70401841545 -3.6829954907 -1.4238775336 -2.8102163312 -0.9117237235 -3.2580125178 -0.55198033997 1.0358064187 -3.288546792 
-0.66329908757 -1.1659040519 0.96927499188 -3.2389102621 -3.9548012921 -3.6291737147 2.8102674922 2.9113350626 -0.26171450962 
-2.6768989407 0.13001241311 -0.091809072604 2.8850528709 4.1237922624 1.4425712466 2.266402398 0.33874660546 5.8482029402 
6.1046643186 3.5371480829 4.4996027667 5.1304525608 0.23506095294 4.5092859897 -0.53756918369 -1.4453673843 0.64481941914 
3.2196862094 -3.0507406991 0.83653905718 3.5157612776 3.0113979199 0.43372096426 2.6560057858 0.83025735742 6.3557327126 
6.1895199747 4.868338684 7.0572044874 6.4969021848 3.1504412566 0.41650762485 -0.96460714493 -0.27523692356 1.5689352617 
4.5039311003 4.3492809031 5.5653865182 1.4544649132 5.1024370714 4.37500729 3.5740076942 0.65226470062 2.6728489966 
2.1349984773 0.67340609741 3.5307434066 2.9535435537 0.07897159374 4.1990872812 3.9027173774 4.3374965295 -0.53074691779 
-2.785380881 0.33663169486 -0.087380120015 -3.3955268022 -3.1269496651 -3.7580359716 -1.0870740753 -2.1137316218 -2.3721942354 
-3.6182103801 -4.8086537882 -6.6727283648 -1.6363334683 0.42212244384 -1.5175956228 -0.67400283586 0.37655598217 -2.8006072313 
-0.23012113751 -1.2616837239 -2.8674651715 -1.2282483142 -4.9876386549 0.87724826251 -1.1931679543 -6.9215012344 -3.9888162382 
-3.7356232855 0.69496570641 -0.94366911564 -0.77206575589 -5.8569238407 -0.12622094882 0.24871286713 0.49175405213 0.12493801257 
-1.1734777177 1.233017924 -0.84753188663 -0.092022376345 0.99771224464 -1.0538593219 -0.65480612711 1.5968341896 -1.7210489903 
-1.7564821831 -2.2284596812 -8.2549047419 -5.3274030369 -8.0433991544 -9.0518689744 -7.8660237343 -8.8007801215 -8.4393982543 
-7.9800422982 -8.8850744543 -7.6677755724 -7.5853996683 -5.440449816 -4.5588734299 -4.6400224533 -4.1326144306 -8.2441220288 
-5.074451795 -4.8317159204 -6.7217215683 -5.1182339983 -5.9914869476 -7.5591419103 -7.7311711669 -9.244531291 -7.9178666781 
-8.9688769925 -5.6733386698 -8.1338770349 -5.9293669793 -3.14397144 -7.8924841652 -8.4739829023 -8.274064575 -3.928566806 
-5.8601002318 -5.7972386558 -9.3957542428 -7.5959501355 -7.5447588954 -7.8485132172 -9.3677150943 -9.0758080386 -8.6086138503 
-8.9895516458 -9.3917680271 -7.5197730878 -6.5295039102 -7.6273048274 -7.2450258504 -9.3974768961 -8.2190707573 -9.3816062564 
-8.2240034323 -7.5014383639 -6.4233401583 -9.06574261 -8.9729038641 -9.0777560958 -9.1842978301 -8.9798486212 -9.8090274727 
-9.8936309948 -9.9104964773 -9.1982254409 -9.8657960137 -9.6817897215 -9.8249769356 -9.8613789411 -9.2222475284 -9.1324319722 
-9.6490322628 -9.3493226785 -9.3687380507 -9.2750317521 -9.1694131051 -5.7778085732 -7.3583210407 -9.535152623 -5.2425624209 
-8.2558051556 -8.1969435908 -7.1210590923 -7.3471281789 -9.4117811602 -9.3411066017 -9.3343987968 -8.9496245876 -9.2289994929 
-8.4287826299 -8.8294883459 -9.6649997914 -7.3732010823 -5.9501177923 -6.0899137773 -4.2933933131 -0.4506864861 -5.5553161425 
-6.6421512962 -2.5105018781 -8.4560078915 -9.3981272993 -8.4515245452 -7.0581005567 -9.7343049078 -9.6671347592 -9.6392694 
-9.7253742773 -9.7191113891 -9.9547977827 -9.8578604679 -9.8696618153 -9.8496060346 -9.6633404496 -9.8635487201 -9.9980966408 
-9.86548517 -9.7391449923 -9.9455093945 4.1315354609 3.9469856509 6.6247890642 3.4880043424 7.6179420453 4.5549101284 
2.2894525753 6.8810249514 2.8484018417 7.3366891065 2.7773863656 7.9579737006 4.7178886398 3.9681599607 7.1229425219 
7.9552282251 9.4785054437 9.1913674865 9.0603157768 9.8327562172 8.9417920874 9.6895375056 7.3646008357 9.85612974 
9.8401134608 8.1109022119 7.8945785783 9.1588817702 7.7046993489 9.0632020896 7.9450944974 7.99538493 8.909101598 
9.2805968025 7.4687598215 7.3831527666 9.9560693082 8.8349921082 9.0800919864 8.870924098 9.3317553107 9.1227331581 
9.6804385231 9.0592003307 8.4228875117 7.3940566115 6.9894448741 6.9851774659 7.7642144818 8.7717701349 9.544905465 
9.4751885145 8.7885472292 8.0686084911 7.4871273979 9.2058485672 8.4115087984 9.5727921393 8.2888167823 8.5759650366 
9.7333135699 9.6211204031 9.6549875486 9.2378552773 9.9455511365 9.4797723209 9.3269592987 9.7329443605 9.2403643705 
9.7371544306 9.4863749479 9.7932670224 9.980144888 9.508035904 9.6379896759 8.354945539 5.2365164416 9.1866678118 
8.5487019675 6.6671759749 7.1804034452 9.831174754 9.6169913091 9.1950188869 9.3774686975 9.5124418051 9.8468170256 
9.8850364453 7.6664218163 9.9549055043 9.0473929688 7.371445012 7.8462745001 9.8050596191 9.0449805433 8.0690948446 
9.8641658767 4.1985218026 7.3575793001 7.7658416322 9.0347771652 9.026839812 9.655353521 9.6045998281 9.5458284627 
9.6285424957 9.2428951074 9.7740547889 9.9141220492 9.2434999957 9.989964334 9.9963856999 9.7935898089 9.9836901306 
9.9284986486 9.9416334633 9.7076676269 9.8045662939 4.7867282047 7.6482814027 4.3016413673 9.6076884272 6.6533616575 
8.9510929849 9.6146280475 5.9785909497 9.4535725291 6.7415915783 7.8987693914 6.4643126998 3.0634889404 9.7699259145 
4.440939204 -1.5782165059 -1.7121046545 1.6561806172 2.7035161172 -0.55517080782 0.7354231922 -2.6329457769 -3.7091211097 
-1.8201182699 -2.3872400227 -6.2741777274 -6.2593756292 -3.3401961564 -3.451953481 -4.4510080512 -0.39225293277 -4.4979383298 
-0.11130800964 -2.8610980214 1.5567385971 2.0801156525 -1.0799226861 2.2838077311 -0.10654486097 -0.83929062352 -2.7212293099 
-3.7891201983 -2.6971594261 -3.2097894074 -5.2983862377 -5.7045471493 -3.8819415862 -6.4175536951 -5.2156851872 -5.0043095639 
-1.6714971297 -2.1340391771 -1.8235430448 -0.57399197112 -4.516847601 -4.734146907 -6.0807395914 -3.0239075665 -4.5303680471 
-4.4721786846 -1.6520355877 -1.920603074 -1.8996549401 -2.0970959282 -0.97562165115 -3.0787330564 -2.5633139186 -1.9171153256 
-4.515386857 -3.5580290569 -4.2460567211 0.9318913051 2.4255323369 0.3472616741 0.60979454901 7.301038446 6.8670338023 
3.7941171968 0.34798037131 5.2819216374 6.3523497957 1.7311016973 4.2234323061 3.0712383909 2.0866136531 3.2065628867 
0.62167602948 0.92338133258 2.5342000058 0.64993584555 3.5117437462 6.7417922704 6.053773895 0.70698878282 0.62307627382 
6.3785514645 -0.51770336915 1.2379822108 1.3537096095 0.55447373092 3.4795393604 3.5854441614 3.7550305701 2.6381358472 
3.4225211619 3.6105810146 0.74043400226 0.10198657445 -0.86117078319 0.089566170934 -0.019926404786 -0.48312056686 0.40449403079 
0.098197498382 -0.11756690871 0.98129191345 1.7509298911 0.85654748791 5.3671485959 7.3395356308 5.2458958047 3.9055111482 
4.8379225108 4.094643616 8.7548168033 4.5955129863 2.8775957214 4.376603637 2.6610144224 3.0740183781 5.1513678845 
-2.2269783815 5.2243730812 -2.4882092318 -2.5578805993 1.3696987041 2.0906751736 0.58410067515 -0.089723630377 -2.4843066291 
-4.1379841858 -1.4602582148 -2.0326741235 -5.8861609667 -5.9741691906 -2.2072981987 -2.609798958 -3.7988225315 0.68763777993 
-5.0947421981 1.4090214792 -3.1681092645 3.5061409384 3.0466379978 -0.51708697793 0.241321581 0.23704214029 -0.47128134323 
-1.5140734138 -1.7046127635 -2.0474895875 -1.4743352066 -4.2729055144 -5.7731063754 -0.25654886276 -3.6619135802 -4.2491191548 
-3.2704589214 -2.3341759028 -1.1078082841 -0.93158936421 -0.47890643216 -4.938143586 -3.89258545 -5.0899786351 -1.8647908033 
-5.002116931 -4.7233455257 -2.1962037671 -1.5476843968 -2.7466133934 -1.7625662493 -0.16239366056 -2.3904907928 -1.5389713553 
-0.75072398526 -3.3411487747 -2.5174834872 -2.9260327456 -0.13107588558 0.39614081224 0.81452508133 0.54620705597 -0.91654479173 
3.4475675362 0.99831897409 9.1784707792 5.2430381525 4.6665995181 6.6431982837 6.4849261574 0.5175895676 1.2269474641 
1.0305406108 0.67604086305 0.72706181252 2.2213093873 0.61325489608 2.8159888526 4.3384749336 5.3081161773 5.7692342931 
0.70864587244 5.9354085434 0.64116297227 -0.29484209373 0.029847153819 0.63427444282 2.4782755048 2.507574501 5.28293099 
1.3547517568 0.7657633772 1.0284730012 0.52525334886 -0.14378293103 -1.6676272227 -0.82481271382 0.48080100759 -0.073464770868 
0.094281419603 0.95582292298 -1.0201496765 1.0258002163 1.9214041782 1.492525787 
