# vtk DataFile Version 5.1
vtk output
ASCII
DATASET POLYDATA
POINTS 1244 float
0.0939498 0.0633197 0.10503 0.0756669 0.126566 9.65372 -0.0849125 9.77663 -0.0571289 
0.042854 9.70685 9.81694 9.71832 0.0323978 0.0623459 9.76412 0.0483779 9.71237 
9.87306 9.87476 0.0271959 9.67404 9.78275 9.75441 -0.164573 -0.161934 0.883168 
-0.169241 -0.230054 1.92903 -0.139433 -0.206053 2.94423 -0.127273 -0.140171 3.92777 
-0.184374 -0.138266 4.93048 -0.10784 -0.0597364 6.06952 -0.402507 -0.314066 7.03724 
-0.239417 -0.217498 7.99483 -0.165174 -0.173996 8.96855 -0.103202 0.88839 -0.148865 
-0.106356 1.93952 -0.151 0.00204391 2.89737 0.000827996 -0.0585514 3.92819 -0.0171564 
-0.0178709 4.98546 -0.00131154 -0.0170714 6.09662 0.0391228 -0.103858 7.09225 -0.135775 
-0.131273 7.97323 -0.232155 -0.057025 8.89636 -0.0694061 -0.117395 9.68194 0.895908 
-0.363951 10.0601 1.8146 -0.168898 9.71321 2.90951 -0.19105 9.76599 3.91616 
-0.0822018 9.56679 4.92164 -0.120378 9.73216 5.94908 -0.143721 9.74787 7.04568 
-0.319803 9.94099 8.04517 -0.146586 9.85376 9.01701 -0.124239 0.868741 9.80347 
-0.206163 1.91291 9.96971 -0.0015288 2.95337 9.63266 -0.0625841 3.86391 9.70324 
-0.0641147 4.92306 9.82029 0.0483675 6.08627 9.67993 -0.00968511 7.07927 9.72456 
-0.153017 8.0019 9.91086 -0.160041 9.00562 9.91622 9.81532 -0.371452 1.00673 
9.79249 -0.30746 1.81802 10.0103 -0.360298 2.954 9.69551 -0.114983 3.93849 
9.86118 -0.338297 4.9335 9.68344 -0.136414 6.04618 10.0055 -0.224694 7.02706 
9.98296 -0.290365 8.06596 9.77462 -0.0744511 8.9708 10.017 0.818985 -0.364009 
9.79623 1.96808 -0.147007 9.7262 2.99206 -0.0461162 9.59412 3.90068 0.0149698 
9.77273 4.9343 -0.0465797 9.74878 6.05871 0.0119774 9.74483 7.0153 -0.0553146 
9.88653 7.93672 -0.292013 9.7612 8.98999 -0.0997189 9.83823 9.79716 0.844712 
9.94133 9.93143 1.90889 9.78543 9.77043 2.85732 9.71985 9.62112 3.88304 
9.8903 9.78047 4.90974 9.63786 9.68539 6.06475 9.91838 9.96767 7.0874 
9.96324 9.89113 8.15139 9.97246 9.98811 9.01584 9.70413 0.848642 9.66689 
9.9559 1.90751 9.96789 9.66268 2.94016 9.67139 9.59636 3.94199 9.65822 
9.50818 5.01372 9.64878 9.67349 6.09227 9.64719 9.64693 6.93483 9.60833 
9.84789 7.88295 9.92084 9.65733 8.91416 9.66641 0.932741 -0.0821041 -0.0661052 
1.98554 -0.176208 -0.100007 2.97525 -0.0528999 -0.130279 3.95069 -0.233938 -0.0714802 
5.01468 -0.0829337 -0.0307852 6.06422 -0.158776 -0.0967883 7.02597 -0.104174 -0.103201 
7.93414 -0.396875 -0.267626 8.91955 -0.171674 -0.106091 0.904936 -0.300832 9.9038 
1.99354 -0.1574 9.66872 2.97261 -0.0828509 9.70736 3.90851 -0.0416739 9.50021 
4.97803 -0.194214 9.652 6.0868 -0.148878 9.60464 6.92225 -0.0460084 9.71597 
7.92588 -0.318392 9.78149 8.93772 -0.060943 9.56579 0.882642 9.81791 -0.083495 
1.87685 9.93065 -0.0665218 2.91203 9.90059 -0.0857946 3.93571 9.67273 0.13159 
4.95678 9.8586 0.00385578 6.07759 9.76784 0.00486014 6.93541 9.7093 -0.0958707 
7.95487 10.0279 -0.112261 8.90917 9.87704 -0.0248032 0.827137 9.8445 9.84891 
1.86602 9.81098 9.69402 2.92957 9.7875 9.69262 3.79865 9.82953 9.61899 
4.914 9.62981 9.42456 6.02932 9.9467 9.6947 6.94328 9.80855 9.75279 
8.05326 9.82029 9.72362 8.98316 9.88466 9.94405 -0.404873 0.404662 4.97761 
-0.441781 0.317671 1.78753 -0.381487 5.64827 1.92774 -0.509483 8.20927 3.44651 
-0.338294 8.328 0.348278 -0.365505 5.63017 8.0231 -0.313716 8.35662 9.5165 
-0.540636 8.19984 6.58062 -0.511857 0.110692 8.17565 -0.260644 2.88014 9.38717 
-0.283342 2.96574 0.433022 -0.16021 5.65919 4.9916 -0.377289 2.98297 3.46325 
-0.41644 2.98853 6.5351 -0.229037 0.298185 9.43244 -0.550014 0.304349 6.54429 
-0.614501 0.198939 3.46562 -0.187917 0.369126 0.336002 -0.342787 4.30999 8.71559 
-0.130558 5.63722 9.24727 -0.458062 7.03453 8.72803 -0.540005 6.96915 7.28413 
-0.606389 8.25646 8.01564 -0.382106 9.47341 8.82668 -0.383816 9.39043 7.43817 
-0.409658 9.39331 5.80287 -0.366284 4.30602 1.15368 -0.147715 5.61436 0.444871 
-0.465956 6.97316 2.6889 -0.429193 6.98644 1.14369 -0.679112 8.19196 1.91806 
-0.476192 9.347 4.19657 -0.463669 9.4397 2.63306 -0.62348 9.42496 1.10584 
-0.500962 8.1701 4.97049 -0.401314 6.96756 4.22309 -0.327557 5.64457 3.45606 
-0.398381 6.96692 5.78007 -0.34424 5.65012 6.54367 -0.387771 4.31811 2.69069 
-0.445805 2.97823 1.938 -0.495738 1.64868 1.1132 -0.545886 1.67972 2.68183 
-0.443647 1.66438 4.22383 -0.381393 4.30137 7.30024 -0.428572 2.97191 8.02218 
-0.469908 1.67011 5.75337 -0.612066 1.68693 7.30175 -0.491277 1.6506 8.76585 
-0.336473 2.96759 4.99961 -0.239988 4.30806 5.7711 -0.282084 4.31605 4.22259 
-0.49106 0.445754 8.79484 -0.454343 0.277441 7.29303 -0.259137 0.329383 5.77875 
-0.249146 0.364039 4.1376 -0.413624 0.305842 2.65561 -0.329526 0.528908 1.07478 
-0.398351 3.6065 9.12464 -0.0715692 4.31188 9.22547 -0.229783 4.96956 9.07199 
-0.454453 5.00793 8.38553 -0.294528 5.62641 8.67162 -0.530381 6.28961 8.40138 
-0.459706 6.31477 7.65112 -0.510424 6.98371 8.02048 -0.442604 7.60337 9.1494 
-0.614803 7.63448 8.40944 -0.516101 8.22672 8.78314 -0.662194 7.58633 7.68538 
-0.572107 7.60628 6.92804 -0.657799 8.22955 7.31765 -0.380552 8.89446 9.19901 
-0.170196 9.45614 9.3824 -0.657999 8.82751 6.973 -0.488112 8.81896 6.15853 
-0.429893 9.42066 6.52388 -0.576651 9.54471 8.19174 -0.672415 8.85308 7.71044 
-0.575937 8.84611 8.4852 -0.492468 7.03329 9.62873 -0.347953 6.38146 9.15089 
-0.330298 3.66188 0.664338 -0.120741 4.27828 0.478372 -0.381122 4.9772 1.53552 
-0.302442 4.97947 0.759409 -0.348231 5.66418 1.17694 -0.379566 6.31767 2.29768 
-0.411009 6.31472 1.54654 -0.455844 6.97943 1.93401 -0.555879 7.60203 3.08448 
-0.54759 7.61489 2.30165 -0.573015 8.1942 2.69855 -0.534417 7.61327 1.53657 
-0.542125 7.63038 0.654579 -0.523555 8.21908 1.09823 -0.606385 8.81202 3.7644 
-0.578949 8.81476 3.04997 -0.482963 9.41085 3.52349 -0.462148 8.87376 0.713004 
-0.284259 9.43047 0.298885 -0.493404 9.42474 1.68811 -0.628736 8.77397 1.4611 
-0.571274 8.81306 2.29946 -0.258029 6.99105 0.350076 -0.330706 6.28085 0.682177 
-0.41437 9.24543 4.95331 -0.504425 8.67554 4.56498 -0.542795 8.20356 4.20119 
-0.566261 8.75428 5.39663 -0.567676 8.19401 5.79697 -0.493887 7.62425 3.82248 
-0.39159 6.97611 3.45863 -0.386409 6.31507 3.06393 -0.358182 5.64788 2.68802 
-0.315809 6.31776 3.83735 -0.285755 6.31725 4.61083 -0.31743 5.64818 4.22831 
-0.516087 7.60187 6.1638 -0.460319 6.96569 6.53951 -0.354251 6.31746 5.38362 
-0.330699 6.32385 6.15673 -0.229453 5.66037 5.77156 -0.351946 6.32191 6.91912 
-0.359391 5.66399 7.29735 -0.345316 6.97177 4.99443 -0.471267 7.58784 5.38096 
-0.461176 7.58163 4.59341 -0.357268 4.98104 2.30695 -0.365332 4.31224 1.92687 
-0.437322 3.68542 1.52559 -0.352476 2.96734 1.14636 -0.355908 3.64671 2.30767 
-0.374071 3.64952 3.06301 -0.398835 2.98169 2.68068 -0.398309 2.26749 0.670473 
-0.337538 1.53936 0.377919 -0.402635 0.979113 0.766315 -0.561474 1.02385 1.51985 
-0.465777 2.3201 3.07357 -0.39302 2.32087 3.84716 -0.507131 1.67726 3.47495 
-0.489929 1.00577 2.2933 -0.485058 0.99335 3.08219 -0.52089 1.02475 3.86824 
-0.475001 1.03296 4.59761 -0.542114 1.67344 1.92747 -0.456768 2.32912 2.31144 
-0.537116 2.29858 1.53621 -0.364082 4.97256 7.66318 -0.458079 4.29557 8.04371 
-0.37635 3.64597 6.93755 -0.452278 3.65944 7.6578 -0.473112 2.98692 7.31029 
-0.434401 3.6575 8.3726 -0.347374 2.95681 8.7168 -0.483259 2.31226 6.14525 
-0.487871 2.32466 6.90877 -0.522253 1.67252 6.53576 -0.439239 1.03164 5.38088 
-0.422007 1.01366 6.15489 -0.584172 1.00489 6.9188 -0.629344 0.993082 7.66548 
-0.375836 2.2493 9.15845 -0.218 1.64638 9.51688 -0.61363 1.03124 8.36263 
-0.429228 1.00408 9.22329 -0.582756 1.66124 8.03889 -0.545758 2.2821 8.4054 
-0.574395 2.34225 7.6778 -0.440573 1.66203 4.98875 -0.405004 2.31372 5.38732 
-0.390331 2.98375 5.75639 -0.399709 2.30598 4.6121 -0.363863 2.97782 4.22932 
-0.293191 3.64317 6.15629 -0.334412 4.3088 6.55323 -0.326692 4.97506 6.92042 
-0.29475 4.98356 6.15064 -0.264043 4.98428 5.37675 -0.315796 3.64471 3.84045 
-0.31346 4.31718 3.45114 -0.205261 4.9843 4.60137 -0.251001 4.98601 3.83195 
-0.356681 4.98288 3.06861 -0.204249 4.30747 4.98711 -0.285879 3.63986 4.60877 
-0.252886 3.63437 5.3844 9.93844 0.366904 4.99929 9.94621 0.302051 1.84453 
9.84047 5.64297 1.93603 9.83494 8.1239 3.42503 9.93164 8.29968 0.339988 
9.74394 5.6257 7.98608 9.90788 8.29831 9.38074 9.87217 8.20465 6.57457 
10.0224 0.268464 8.10454 9.8099 2.90948 9.36556 10.0185 2.92961 0.486031 
9.71546 5.64954 5.00045 9.79983 2.98088 3.45934 9.77027 2.97781 6.54123 
9.89714 0.371897 9.41471 9.90766 0.360132 6.51151 9.9545 0.311258 3.52471 
9.88423 0.422984 0.47743 9.88798 4.31808 8.60715 9.59828 5.61287 9.25167 
9.66934 6.98732 8.63002 9.82208 6.97191 7.31051 9.9931 8.16224 7.99703 
10.1214 9.36367 8.72942 9.95337 9.45456 7.2728 9.85881 9.31282 5.74974 
9.816 4.3306 1.21842 9.85656 5.61081 0.468111 9.79277 6.97918 2.68125 
9.90547 6.97945 1.21291 9.93515 8.19864 1.93411 9.75825 9.21628 4.27451 
9.80686 9.30252 2.63116 10.0549 9.22465 1.11063 9.82961 8.15655 4.99496 
9.73755 6.96114 4.22634 9.74059 5.65031 3.45535 9.75612 6.97413 5.77057 
9.73859 5.65041 6.53974 9.78552 4.31531 2.68854 9.93198 2.98769 1.94325 
10.0023 1.68889 1.16032 9.92319 1.67615 2.70707 9.85523 1.6567 4.224 
9.79691 4.3131 7.30174 9.88328 2.98596 7.98107 9.84293 1.65831 5.76937 
10.0071 1.68501 7.28762 10.0141 1.64242 8.74365 9.76075 2.97843 4.99965 
9.73098 4.31471 5.77225 9.73621 4.31506 4.22831 10.0966 0.401304 8.80529 
9.97737 0.280053 7.35053 9.88151 0.307025 5.69817 9.91269 0.272238 4.19951 
9.95546 0.30337 2.70905 10.0322 0.518573 1.18571 9.7864 3.62101 9.09372 
9.72945 4.34397 9.27567 9.69922 4.99704 9.1184 9.85257 4.96927 8.38257 
9.7825 5.63457 8.63768 9.71284 6.29379 8.38268 9.85774 6.32351 7.65996 
9.76146 7.01328 8.00522 9.73577 7.58095 9.14555 9.92087 7.56604 8.39521 
9.89111 8.16485 8.73019 9.86333 7.60071 7.66988 9.81561 7.59927 6.90265 
9.92307 8.21033 7.30693 10.0181 8.83638 9.16152 9.95004 9.44432 9.4472 
9.92899 8.74242 6.94714 9.89933 8.76811 6.14992 9.92006 9.37531 6.59488 
[...]
CELL_DATA 2484
SCALARS scalars double
LOOKUP_TABLE default
-6.6406529452 -5.6498708065 -3.9675044785 -3.868633475 -5.7632886546 -1.3831244405 -4.8334538967 -5.3888554421 -3.0541670324 
-1.6352481514 -3.604023126 -3.9711509427 -7.9143088054 -5.6793398461 -4.5560828609 -4.5214252962 -1.916740711 -4.4289055739 
-3.4482307096 -1.7370612043 -4.4057265732 -2.1284654641 -3.8276320552 0.89731072379 -1.0192323935 3.2382230491 0.15068613427 
3.5288728895 -0.050913271771 0.71212766012 2.0189449505 0.98646096293 -1.0214812059 -0.03192345256 0.86511577653 -1.8438726814 
-1.8791309867 0.66427723986 -0.98511591947 -0.23260748411 -1.3605733602 0.38670147128 0.89212476459 0.18796938996 -1.1693141976 
0.47708269997 -0.38598447714 -0.61543532423 0.52574094076 -2.2117321624 -2.0828388797 -2.0281731165 0.50166092433 2.2475605235 
-0.084772765225 2.6897239642 3.0422096043 3.6529690225 3.0284699102 -0.55680819864 3.9710059881 1.1563871295 2.1486200943 
3.5730054762 6.60019403 6.807038681 6.0117927948 5.829404331 4.5974983557 3.8375352121 4.3560723664 -0.88457137945 
-0.71187869154 -0.11371150197 1.5863341919 -0.40473253543 0.33757064207 0.32754040276 -0.46773061404 1.2655056221 3.3066758687 
0.51017840647 -0.17797491401 0.55289347342 -2.2032016026 -0.099038689463 -2.960794424 -2.3754763942 -2.2933163966 1.2453532763 
-1.7503444564 -4.4724644605 -1.8984905539 -0.55128911009 2.6556490791 -0.58702917581 2.0843419309 0.40279792021 2.3192701366 
0.35304167363 0.25002971323 1.0008304512 -0.050200485176 0.11392410678 -1.0140302708 0.54816826673 -1.0789058951 0.53804779948 
-0.20286848753 -1.222519652 -0.47467025214 -0.91593836136 -1.3371379116 0.25977256966 -1.3479017475 -0.36199386807 -1.6880174673 
-1.1919978221 1.8828049034 0.245904381 -2.3244178726 -1.4430400864 -1.3472076732 -1.3336012802 -1.3876812529 2.1335669881 
1.7117819772 1.874330918 6.4134977558 7.2890444057 6.6741830671 5.9043415234 0.063329951325 1.0334098931 -0.20343656884 
-0.59406551332 9.0289442089 8.3430158223 5.1587523126 2.5302938549 1.9424994834 -1.181703117 5.3466924079 -0.54546360323 
-0.62811554997 -0.39362511355 1.7463798915 0.89131879273 -0.58016636107 -0.037765370197 1.3393381867 1.5434468268 1.2587428547 
1.8358368606 -3.1586118469 -1.6420767476 -0.63818674896 -1.0037816323 -0.80303835631 -1.7288467189 -0.70239304907 -0.44484830901 
-1.017243638 0.014505361583 -1.3873310102 1.4466921934 0.98011656374 7.0784493537 1.2123140177 6.7650720268 7.1755618086 
-1.355387751 0.380188234 -0.14791758221 1.8610270282 -0.5378952249 1.0713168194 0.70970241687 -0.61548751162 2.6188479272 
0.92956118774 2.1678870772 0.26704604537 -1.9921996428 -1.4808549631 -2.0333015768 -1.2521012153 -0.14058628552 -0.64431671811 
-0.37177390001 -1.5266530486 0.10049455514 -0.69360901911 0.25092149989 -0.34156133936 -1.222806066 -0.6522921554 -0.62091302559 
0.1005424631 -1.3427624296 -1.0864516839 -1.2907497194 -0.86615249388 -2.3445938848 -0.64927759029 -1.68571037 -2.0001364458 
-0.0023855016622 -1.4432806266 -0.72742542927 0.040968854768 -2.2370609945 -1.5090472509 -1.8188813495 -2.3436886854 -0.2654769902 
-1.3244043513 -0.38875937248 -1.5046895904 -0.65265685242 -1.048493657 -1.201851102 -1.1819194908 -0.99059824147 -0.55156194698 
-1.0755077152 -0.59588977138 -1.3996273026 -1.590127546 -1.9363445507 -0.18658259612 -0.22906998727 0.28853134325 -0.055287514093 
0.39018956956 -0.3508874221 -0.55835048296 -0.52828001723 -0.33782064952 0.99076522189 0.2132575389 0.50875337342 0.74226761908 
-0.30805441479 1.1390684939 0.46415061755 1.8041046138 0.031051329007 0.36126137669 0.65840190705 -0.30127202883 -2.4569977156 
-2.4382006809 -2.7805318919 -0.29231714718 -0.035639467268 0.77669032262 -1.2336225021 -0.98202884783 0.94484934839 1.2553159523 
1.2153102109 -0.85493868534 -0.92441311217 0.44847745447 -1.0608899938 0.85842596185 -1.4709793214 -2.0938458653 -3.5767737424 
1.3679505336 0.72479408867 -0.60049174375 -0.062320719415 -1.3387881009 -0.80271047731 0.66554150638 -0.27705464525 1.3024935143 
1.1657453475 0.52952268183 0.94400541546 0.41096811381 2.0010479686 1.298645144 1.7376173311 0.74239127421 -0.2708260959 
1.325606381 0.7057389234 0.67426493204 0.80538205839 -0.76677406879 0.66001503941 0.5082007531 1.0473972539 -0.013328266411 
0.85482676429 1.1039397742 -0.66904047158 -1.4645575809 -1.0347684443 -0.21243474837 0.49992095363 0.52850535368 -0.24237964565 
1.0270411187 0.20026947669 1.1937395164 0.56611539437 -0.60085506752 -1.5781577014 -0.26753276213 -2.3985345371 -0.068557153999 
-1.1326206019 -1.8741021242 -2.0634541665 0.62816194426 0.2502160995 -1.1270384076 -0.28589880858 3.4156789796 -0.42833486491 
-0.9050199074 -1.779262464 0.5552058572 -1.3003962288 -1.6079334605 -0.51186950924 -1.2222158402 1.5056691914 -1.1560113561 
-3.1584568444 0.70128415418 1.1288539059 0.46506946319 0.5881935824 0.42482873189 1.2789536222 2.2963723951 1.7835324994 
1.219398154 1.9110061507 0.66203154264 0.90798473497 1.9674042608 0.33939220661 -0.14452572216 0.34613220587 -0.83705320256 
-0.25784751925 0.52058314393 0.26275591191 0.41908556118 1.1766002605 0.61548099248 0.78033892331 0.72719502341 0.73924113836 
0.34028925531 0.48855842573 0.99663763968 0.65783391545 0.78251018221 0.59013534072 1.2471880608 0.26898000447 0.09998861515 
0.015418605609 0.5277517211 0.023862531829 -0.36803625024 -0.19855896731 -0.58597161448 0.13163334184 1.0215358949 0.74031184026 
-0.49353964883 -0.13146992727 0.45858482994 0.34198966541 0.49819949202 0.270102628 0.33769877818 0.4685292343 0.80753606213 
-0.51623728272 -1.0783033266 -1.3426020933 0.46343375981 0.20593756583 -0.18869671749 -0.018133737135 -0.36762793808 -0.087372286182 
0.69939621206 0.14454064241 1.0960521752 0.56504271649 -0.61946035749 -0.44528368362 0.27918786736 0.82325711212 0.96164770831 
0.94630862545 0.49313445477 1.657103872 1.6584260892 1.7711204336 0.99806624444 0.45239073748 0.63702689907 0.97219748443 
-0.84937272713 -3.2581781698 -5.5630150663 -4.8090960742 -0.6608737114 1.0197525976 -1.2458571879 -4.0952780778 -2.6534474322 
0.40222724621 -1.0710284045 -5.015858962 -2.1833440748 0.82548528535 0.11906547336 -2.4617692134 -1.9984902299 -2.082952048 
-3.6719939853 -2.4516585299 -2.4411497522 -3.5333186792 -1.151587304 2.6753138042 0.6531445347 0.18757167583 1.2744112962 
-0.065785436247 1.2122110499 0.93575167471 1.273949978 0.25234046647 0.99268854361 0.78645067974 0.81221263733 1.2342829847 
-0.6922241128 0.098825261942 0.9805022416 0.37649070684 -3.062524283 -2.4078754931 -0.2790310116 -0.86343545922 -0.30012193839 
-1.6204314659 -1.2914241397 -1.3340363769 -1.7636850075 -1.1818284959 -3.5356798122 -2.1852855602 0.66325467243 -0.0030791300284 
2.4250699131 -1.8941052634 3.0479776991 1.3163233161 -0.85916067339 -0.77839691759 -0.12415210449 0.19994860799 -0.067107175919 
0.54247432616 5.6939975446 2.7162612077 0.4825894896 1.1526897533 0.98315227769 2.8134371603 1.2998715355 -0.57584477163 
-2.5753006643 -1.8609455352 -1.5872371146 -1.4844071887 -1.9485958496 -2.1420903184 -1.277985201 -0.15223629585 2.0508159339 
0.87590011726 -2.1515644021 -0.32294574975 -3.0420046506 1.2609414071 0.81927025923 -2.0946819544 0.36146088678 -1.5151172188 
-2.5747813403 0.19977200516 2.0614853256 0.44383084286 -0.43070979617 1.5792638325 1.6875895033 -1.7625893832 0.80863360549 
-0.55689814887 0.21073216233 0.24961707071 0.40380045923 0.31297649812 -1.4471800973 -0.47575564646 -1.3518824498 2.7912253062 
-0.36709128322 -0.22876082443 0.22174042747 -0.23905237922 -0.93745491632 -0.99475856286 -0.82531575641 -1.1838536754 -0.57443151809 
-0.88139889134 -0.67019841819 -1.8093510223 -0.43255770029 -0.67840083108 -0.71069499152 -0.43635957493 -2.0654591881 1.9930472822 
2.3211222468 1.4444492637 -0.56336676683 0.87097864522 2.9644034701 2.3552778699 -0.048185997226 0.58410066285 -0.63448859097 
-1.175147739 3.0035712793 3.4609572933 2.5463539137 2.906772916 1.5582620845 -0.9178349532 -0.30703850219 -0.49350186681 
-0.39656168162 0.86647725341 3.5178416792 -1.9362601485 -1.6954739777 -1.5581685842 -1.6306377653 2.2052648929 -0.94587153091 
-0.85502739019 -0.37495123656 0.062650193659 -2.3367215809 -1.2487844325 0.0019438395923 -0.81624003972 -1.1697111513 -1.2313907332 
0.20086312572 -0.36020002221 -0.22223333391 1.4419885544 -0.09293818812 -0.75253306721 4.019864156 3.4724869876 -0.99017115251 
-1.4116322299 -2.959707834 -1.7422122999 0.34834063683 -0.41944826027 -0.68016452436 -0.56629530515 -2.0782320001 0.20406440751 
4.1530306804 1.9551872717 -0.59866726596 -0.75549806289 -0.57911292254 -0.7487242808 -0.05140405951 -0.15876399651 0.084108410972 
-0.11356807276 -0.25081023808 -0.06005174171 0.081943026275 -0.082177304886 -0.048066303411 -0.2186772543 -0.27967842661 -0.17760474047 
-1.021414147 -0.42897201301 -0.13629293842 -0.24116562734 -0.54971191138 -0.30684135665 0.16965996121 -0.24739587221 -0.23721245428 
0.10390024389 -1.4310987063 -0.4439476466 0.1331108263 -0.88205121404 -0.98304765465 -0.97070099174 -0.067289999894 -0.19597952164 
-0.35681082936 -0.14104833778 -0.76726397711 -0.97195337136 -0.60701350983 -0.7926026629 -0.62200815314 -1.5170174126 -1.4639100006 
-1.9394602699 -0.73746384954 -0.59699217613 -0.99558151622 -0.93224221734 -0.22926764303 -0.41254407357 0.050823615429 -0.003818538742 
0.62701510404 1.6190895936 1.3522401471 1.2114213062 0.41647046358 0.79664357857 0.46325262707 0.45755221225 1.367347388 
0.44862999115 0.36383943747 0.22763178665 1.0618444123 0.86069619399 -1.6017438177 2.015123551 -0.31865211413 -0.67768807656 
-0.016815103737 0.9169862304 -0.10525370959 2.2263115254 0.55336760698 -1.7358553632 0.28225461326 0.81535662197 0.84166462014 
0.85003547156 0.74419265774 -0.72152332566 0.24535365361 -0.21174150064 1.0513612562 0.2769979942 -0.02128234303 -0.10665567524 
0.42034756579 0.63451287609 0.47620400291 0.5351725446 -0.58365422176 0.89351532058 -0.055707741801 0.32679262565 0.5523957525 
0.49973288193 0.50313730451 0.6760332805 0.81341699508 0.44415724314 -0.83427747965 0.1367481057 0.18137916479 0.28636148562 
0.38391210723 0.38395725082 1.3519009832 -0.53308903757 -0.15118397237 -1.0010361954 0.28424758124 0.48513559551 -0.06598883777 
0.21073509579 -1.0365252476 1.3670930107 1.2060823356 2.1503163868 0.47270344605 -0.10744577582 1.2436026362 1.2804186783 
1.0909524811 0.60333774815 0.77012724077 0.095472424916 0.78311120507 0.5123938264 -0.23010376463 -0.068001515267 -1.1566790938 
0.97884751964 0.085590077487 0.50683200954 0.22751405361 -0.89201739096 1.0709589004 0.68851714606 3.5158688446 -1.3335810807 
-2.5439844205 -1.7525938451 1.1928472667 -0.69635244627 -2.0459307204 0.099075090847 -0.47817930746 2.1766405241 -0.45365765457 
0.92803631371 -0.46547451111 1.311191168 -0.31743219634 0.42145093562 0.21545376942 2.6274688885 0.48651552566 0.31800443163 
1.6243112518 1.018415714 1.1780670811 1.0983490665 0.90994482296 1.3082819673 0.71464346722 1.0634293409 0.587953907 
0.39165405856 1.2246113794 0.80843298139 0.59632150681 0.56004593462 0.56274047221 0.54812711389 0.64608022904 0.5955291959 
0.475267557 0.58729329983 0.65120364222 0.68276576507 0.67100150498 0.67064223427 0.20533751164 -0.018891178168 0.1381139441 
0.23652671689 0.36157515204 0.8895471352 -0.45871320327 -0.033008120822 0.13514924033 0.022363977 0.18059047395 0.279644174 
-0.21394906661 0.20038023554 0.64279202128 0.24744494869 0.39199890021 0.14393892641 0.29197678814 0.243312888 0.059839960375 
0.15172717999 0.15753117407 0.24623670201 0.033753368449 0.050693590078 -0.13737041784 0.030575267334 0.16417636009 0.10842022 
0.12257883488 0.090007239655 0.12189165048 0.12622704193 0.15201408657 0.1283469764 0.19982885896 0.45233210867 0.36543676688 
0.35667308312 0.18756450006 0.33015666444 0.3535701441 0.35477122105 0.2761745798 0.15494220828 0.12672075534 0.151615987 
-8.7230926578 -2.2197025488 -8.7634111338 -6.7969264396 -9.2643945281 -9.5257038844 -8.7049650629 -8.2812694143 -9.6225652517 
-9.5229433904 -9.9051494422 -7.746845138 -9.4383976402 -9.8970064983 -9.7870236095 -7.8888782689 -9.7454471019 -7.7810426184 
-7.540766911 -9.7815450526 -7.9009112521 -8.625080653 -9.8097654757 -9.2892729286 -6.8346926945 -9.8034938321 -9.1765756759 
-9.1283599793 -9.8746649585 -9.9389374553 -9.8726168041 -9.8379155841 -9.7221706399 -9.697858476 -9.5843384307 -9.5191042709 
-9.9167606711 -9.9418304989 -9.8518962755 -9.8591849063 -9.7586718837 -9.70104023 -9.8796035585 -9.8655767468 -9.8946327824 
-9.8765762819 -9.878788423 -9.8500664746 -9.8759080916 -9.938647732 -9.8379898236 -9.9041540841 -9.828134833 -9.1855848629 
-8.381827508 -9.388249849 -7.5403708081 -9.1190934934 -7.5325390037 -9.9289533787 -9.947240748 -9.9527295572 -9.9503200625 
-9.637246013 -7.4522022694 -8.331173649 -9.8387647567 -8.9388096006 -9.9351021736 -9.332754739 -9.1384539434 -9.9237146701 
-9.8886046875 -9.9980470734 -9.8655439831 -9.8906373323 -9.945942075 -9.9311905627 -9.9171732982 -9.8687632749 -9.9371515984 
-9.9340653289 -6.9764261008 -9.1704517913 -6.670475856 -9.8754850358 -9.8460849643 -9.4620998322 -9.7065277142 -8.2586923851 
-5.8107368755 -6.0871310749 -9.5351314637 -6.603616105 -6.8205305761 -8.4261636599 -9.7790762512 -9.5357345588 -9.478709311 
-9.8944652129 -9.9801658321 -9.9406817488 -9.894556475 -9.6417233038 -9.5977938236 -9.5869728704 -9.9410782409 -9.4669688754 
-9.9708949567 -9.970033721 -9.9487254145 -9.9633705527 -9.9654303537 -9.9719370089 -9.8133699951 -9.9761715443 -9.9584688458 
-9.816155991 -9.8773747796 -9.9798047711 -9.8065355835 -9.9639119281 -9.965702165 -9.9849314151 -9.9784671556 -9.2773460729 
-9.9884385434 -9.980614087 -9.8976797631 -8.6111129087 -8.3942151775 -8.9940579788 -9.6298011465 -8.313578491 -9.3699009926 
-9.4327302404 -9.4605347417 -9.4098685939 -8.4001499386 -8.9444308693 -8.9911306144 -9.8849474016 -8.6441196948 -9.8651801594 
-9.8274004227 -9.8721552528 -9.9621638079 -9.8615928393 -9.9811109498 -9.9615841631 -9.8522243896 -9.9920421574 -9.8974752767 
-9.9908539571 -9.7649745753 -9.5954921723 -8.291408875 -9.8191594165 -9.8898173018 -9.8956396871 -9.9559775268 -9.9567327992 
-9.8321124172 -9.7666284955 -8.3007227292 -9.1795091271 -9.5260063156 -9.2766463368 -9.3267493711 -8.1469252393 -9.1937963066 
-9.9373520452 -9.972993897 -9.9421527356 -9.9371229178 -9.8871703555 -9.9798492831 -9.88647852 -9.9208145364 -9.9962188793 
-9.5428271973 -9.9219190179 -9.9724893854 -9.9459358329 -9.9321290234 -9.9320329068 -9.9582446653 -9.9601269932 -9.969921673 
-9.9707806763 -9.8854257539 -9.9082209074 -9.995833308 -9.8916935414 -9.9672203048 -9.9954041889 -9.9558870352 -9.9956931649 
-9.9830769128 -9.9060263878 -9.9360699121 -9.9764836152 -9.9382274219 -9.9551114597 -9.8277846826 -9.8735186397 -9.8945624006 
-9.9566564113 -9.9849214433 -9.961685297 -9.9837676387 -9.887274081 -9.9584267699 -9.9620064963 -9.9984420495 -9.8737473663 
-9.8619496269 -9.8459800938 -9.9059168873 -9.9639061243 -9.8893833082 -9.8941202137 -9.9404191668 -9.9874038317 -9.9580115588 
-9.9972759662 -9.9499549542 -9.9564272675 -9.972348345 -9.9673859998 -9.9375671017 -9.9807415739 -9.9552957131 -9.940124901 
-9.9428867269 -9.8481629522 -9.9868442152 -9.9889602203 -9.9484818412 -9.9565941599 -9.9397276241 -9.9426858537 -9.9565158103 
-9.9376769112 -9.9640766338 -9.9781285771 -7.656603003 -9.9367697143 -9.7634404882 -9.933940643 -9.7345659853 -9.8727315618 
-9.8385729592 -9.7335416144 -9.9704920738 -9.4364406972 -9.9054016039 -9.6179548069 -9.4317841778 -9.7896278029 -9.6679603274 
-9.6179445113 -9.8436596424 -9.3520869973 -9.2708105261 -9.3500393047 -9.9652961436 -9.6791974587 -9.6592332613 -9.6636269684 
-9.2693479178 -9.7909974758 -9.9287770102 -9.7942979035 -9.8197464696 -9.7955578309 -9.6141312126 -9.8897336809 -9.9573825213 
-9.9117186907 -9.9107797826 -9.9140486825 -9.9386221643 -9.9376126414 -9.7637238397 -9.9539877625 -9.9416864148 -9.5979708484 
-9.7737380351 -9.7252601093 -9.9024229655 -9.9231887003 -9.855358826 -9.9284178552 -9.8858030758 -9.9711432256 -9.9104928573 
-9.9225803373 -9.7912185099 -9.9756753477 -9.7341300868 -9.894618153 -9.9662513133 -9.7880271588 -9.8891926065 -9.9783839762 
-9.8417437208 -9.8509693139 -9.8559906249 -9.946823301 -9.5559128203 -9.8166742718 -9.6711602009 -9.6847489593 -9.533753245 
-8.6577491996 -9.9318072107 -9.0133306995 -9.0791753701 -9.5945093546 -9.9278269348 -9.5088757644 -7.2368539338 -9.9211892483 
-7.4421860158 -9.5747617113 -9.0408124959 -8.2733057871 -9.3629086248 -8.1801813585 -5.8069122973 -9.8246741953 -9.2123453348 
-1.7042939168 -6.313472836 -9.0698342893 -9.7815414058 -9.4251354561 -9.6690864673 -9.5368762483 -9.7648870648 -9.730510805 
-9.9042756089 -9.8794786461 -9.8207630544 -9.8750613168 -9.8745668908 -9.8860672931 -9.5779829029 -9.8804535974 -9.7783725844 
-9.4551470925 -9.9811222948 -9.7520622964 -9.4990999545 -9.885419719 -9.9997009794 -9.86549046 -9.9274544208 -9.9089757193 
-9.9043789678 -9.8920812167 -9.9225791875 -9.8568055246 -9.4065331045 -9.6262991153 -9.9323762036 -9.969485272 -9.7488031051 
-9.9634819267 -9.9822095623 -9.9977761878 -9.9561514689 -9.9782507224 -9.8762595146 -9.8563277449 -9.9510926258 -9.9044517456 
-9.970877177 -9.7927494152 -9.9818009459 -9.9705531967 -9.9553154567 -9.976014891 -9.9667812941 -9.9638778608 -9.9359010121 
-9.9552137691 -9.9761183515 -9.9427213354 -9.9934291489 -9.9824789307 -9.9578530743 -9.9927081476 -9.9845357292 -9.9926554827 
-9.9884343041 -9.9845360554 -9.948957106 -9.957392582 -9.9549615907 -9.9716353791 -9.9753270377 -9.9565547198 -9.9652932884 
-9.9720216402 -9.795762249 -9.9406533954 -9.9316447719 -9.9568752544 -9.9498493667 -9.8987874467 -9.9751619052 -9.9762965533 
9.4551583328 6.073514254 9.4835654703 9.6271761381 9.5091572519 9.7217234429 9.5141695729 7.8986400285 8.163549867 
9.8628712706 9.6892851648 8.7837375591 8.6008032609 9.558553659 9.6360843075 9.545050266 9.3237482395 9.5222893969 
9.6026427172 9.494638449 9.773810415 9.8843030626 9.9041908148 9.9390035416 9.1964892661 9.9009981658 9.9972246648 
9.8473515292 9.4990661385 9.7490583971 9.8392566357 9.5248090529 9.926328242 9.6269784644 8.9945387081 9.5791781683 
9.705731127 9.8818247034 9.9413074725 9.7113134455 9.855017119 9.9548173995 9.9845772093 9.9676643405 9.9787364976 
9.8849410465 9.9482822853 9.940588216 9.866260861 9.9714567588 9.9176989092 9.9082608073 9.9473917318 9.8881268845 
9.5750866832 9.9535216128 9.4268956141 9.8645595622 9.4882098563 9.8729105069 9.9280624048 9.9644556171 9.9402625714 
9.5912979087 8.9827857653 8.9399263703 9.3725365334 9.3425351873 9.9255412775 9.6020014987 9.2501017576 9.8719542025 
9.9573130324 9.9461588729 9.9325046704 9.9571371696 9.993684307 9.9269480737 9.9072732946 9.743367912 9.6071947118 
9.7221083438 9.4066015679 9.8569900588 8.803278024 9.827978728 9.760211968 9.9119005994 9.6982209818 8.7123686673 
9.9450202429 9.8752581042 9.8559700595 8.8002367658 9.5072477276 8.5403718392 9.9202244919 9.9618127234 9.8929691497 
9.8183069171 9.9815550213 9.8970525269 9.949131785 9.5113180898 9.9346374183 9.8885804388 9.8321237967 9.8286973455 
9.9197482079 9.9612453889 9.9538479489 9.9330894486 9.9552787015 9.9708177486 9.905856605 9.9655285735 9.9191866738 
9.9759218892 9.9960106787 9.9984957587 9.8237727578 9.8031983467 9.9561722997 9.7530077771 9.9497814511 9.949796339 
9.9421352002 9.9357144119 8.7387610864 9.3067884343 9.7054684032 9.524513402 9.8027244094 9.6292296022 9.5625839348 
9.5823338093 8.4551769055 8.6009898768 9.1709579076 9.2768248373 9.8612931779 9.9393050727 9.1662107433 9.9698713973 
9.9864493615 9.9436956919 9.9362296528 9.8827472134 9.9466988976 9.896595159 9.9975420497 9.9363450936 9.9392427518 
9.9815280365 9.7965192353 9.7269417812 9.9957568846 9.6283591157 9.9275917792 9.9972081421 9.9437283673 9.9779875219 
9.3743090308 9.9264699972 9.7529163269 9.5443857031 9.8001065204 8.8402805341 9.9531466009 8.6379552355 8.6982142792 
9.9637074923 9.995703436 9.9657815188 9.8708003762 9.9814556847 9.9733014932 9.9494829393 9.9963389955 9.8122801674 