# vtk DataFile Version 5.1
vtk output
ASCII
DATASET POLYDATA
POINTS 1244 float
0.026238 0.0645303 0.0616501 0.216908 0.178246 9.62234 0.0652123 9.69356 0.0267822 
0.0466646 9.78588 9.69439 9.61078 0.139443 0.122486 9.7613 0.0258813 9.7006 
9.5843 9.63585 -0.0581801 9.85611 9.82369 9.7711 -0.203038 -0.218281 0.803554 
-0.23112 -0.232797 1.93159 -0.262621 -0.338617 2.94417 -0.0618689 -0.100995 3.89868 
-0.107703 -0.0700911 4.95086 -0.31339 -0.24324 6.02714 -0.214912 -0.194987 7.00509 
-0.274784 -0.242013 8.02636 -0.284415 -0.251992 8.96753 -0.0614965 0.827161 -0.093054 
-0.0930088 1.91059 -0.107974 -0.0450009 2.88722 -0.127151 0.0515937 3.91432 0.0941457 
-0.0693236 4.99472 -0.0582526 0.00990809 6.10728 0.0357549 -0.157159 7.09856 -0.176229 
-0.116569 8.02084 -0.263133 -0.184541 8.98571 -0.157066 -0.239932 9.80914 0.807651 
-0.299582 9.81085 1.80782 -0.188962 9.63897 2.84125 -0.0856339 9.60188 3.91771 
-0.144375 9.70633 4.90411 -0.19108 9.85339 5.93953 -0.124875 9.73575 6.97766 
-0.294761 9.9991 8.06097 -0.291633 9.77012 8.98171 -0.146982 0.88296 9.88031 
-0.0316123 1.87299 9.70203 -0.00910619 2.91609 9.66115 -0.0648316 3.8661 9.66173 
0.0179149 4.94661 9.54669 -0.0731227 5.99774 9.80548 -0.0166929 7.06685 9.76287 
-0.184951 7.97904 9.874 -0.248074 8.93629 10.0125 9.9083 -0.286878 0.899851 
9.71015 -0.184027 1.85841 9.74472 -0.216385 2.89053 9.67405 -0.0997991 3.95566 
9.76377 -0.173342 5.05191 9.72494 -0.1044 6.04198 9.85672 -0.229806 7.06931 
9.95294 -0.290577 8.00112 9.85777 -0.195785 8.91922 9.9876 0.883733 -0.288099 
9.76345 1.94241 -0.151428 9.60417 2.96091 -0.0538288 9.70715 3.90656 -0.11179 
9.69066 5.00204 -0.0193339 9.91526 6.02107 -0.0880578 9.65388 6.99791 -0.0209651 
9.84545 8.01975 -0.45387 9.68194 8.99472 -0.175022 9.77185 9.69032 0.848445 
9.84336 9.85094 1.81486 9.56029 9.56689 2.87199 9.67779 9.78756 3.86586 
9.77802 9.63853 4.86455 9.64625 9.67196 6.02874 9.91002 9.97098 7.10923 
9.99699 9.97557 8.19099 9.8304 9.74256 8.93349 9.88899 0.854714 9.85667 
9.99446 2.00155 9.95443 9.65283 2.90401 9.61444 9.74148 3.97726 9.71087 
9.50433 5.03698 9.56723 9.68965 5.9972 9.60602 9.53547 6.97117 9.56282 
9.70917 7.96336 9.78076 9.72544 8.97403 9.73874 0.935441 -0.0702061 -0.0375125 
1.90751 -0.152224 -0.0812932 2.95553 -0.0530441 -0.0318029 3.97685 -0.0927403 0.0630114 
4.97938 -0.0799434 -0.0809022 6.07551 -0.133982 -0.0170407 7.03465 -0.186679 -0.229795 
7.95132 -0.227572 -0.0852388 8.87611 -0.314247 -0.256974 0.916776 -0.156138 9.74136 
1.9422 -0.288198 9.65539 2.99143 -0.108505 9.664 3.90818 -0.286739 9.51935 
5.02542 -0.178031 9.53336 6.0255 -0.124664 9.56118 6.90724 -0.112421 9.87016 
7.91863 -0.20277 9.68207 9.00579 -0.389468 9.81854 0.848228 9.79636 -0.0645119 
1.83671 9.96321 -0.118909 2.88596 9.77073 -0.0456779 3.93037 9.74088 0.0160353 
4.95788 9.60074 -0.0565644 5.99976 9.70114 0.0184676 6.91753 9.80888 -0.216905 
8.00816 9.94417 -0.175365 8.96163 9.8658 -0.132852 0.827734 9.83476 9.76663 
1.94891 9.84273 9.75941 2.91703 9.64956 9.62531 3.81142 9.73039 9.52512 
4.90336 9.68291 9.58852 5.9389 9.82218 9.58203 6.95471 9.68039 9.6329 
8.01757 9.96233 9.94146 8.98792 9.79161 9.748 -0.488527 0.373181 4.95753 
-0.436588 0.309027 1.75104 -0.455416 5.6503 1.93134 -0.652469 8.20266 3.43496 
-0.374226 8.31165 0.309703 -0.446622 5.63026 8.01016 -0.393987 8.37043 9.53947 
-0.668132 8.18827 6.54336 -0.582948 0.23177 8.23268 -0.295606 2.8544 9.36728 
-0.47113 2.95986 0.328592 -0.319089 5.65861 4.99661 -0.491943 2.98442 3.46371 
-0.539063 2.99512 6.52916 -0.296157 0.247931 9.40414 -0.432546 0.28472 6.50265 
-0.430703 0.266439 3.43296 -0.00037015 0.356054 0.392025 -0.44071 4.32323 8.68222 
-0.176752 5.62531 9.24613 -0.583694 6.98187 8.74411 -0.651682 6.94159 7.26637 
-0.756252 8.25539 8.03706 -0.455496 9.4189 8.81292 -0.510164 9.45462 7.41636 
-0.443799 9.33572 5.76588 -0.337904 4.32022 1.16406 -0.232167 5.63592 0.468897 
-0.549847 6.96116 2.69003 -0.562573 6.96166 1.12067 -0.710287 8.19424 1.90644 
-0.390087 9.31824 4.19728 -0.493008 9.40973 2.61461 -0.465077 9.25266 1.13295 
-0.617127 8.13721 4.97151 -0.49693 6.98595 4.21566 -0.381731 5.65032 3.44273 
-0.481313 6.97123 5.78385 -0.432586 5.64753 6.54807 -0.438567 4.32001 2.69384 
-0.506618 2.98635 1.93739 -0.528295 1.66325 1.1189 -0.585338 1.68147 2.69527 
-0.546611 1.67452 4.21881 -0.463031 4.29972 7.29736 -0.597016 2.97888 8.0096 
-0.592579 1.6767 5.7441 -0.653533 1.69186 7.30116 -0.487116 1.67189 8.7096 
-0.444858 2.96445 4.99831 -0.374315 4.30243 5.77035 -0.299993 4.30048 4.21358 
-0.379553 0.436431 8.74977 -0.567459 0.254158 7.34439 -0.38015 0.297955 5.73696 
-0.510413 0.285959 4.20062 -0.548123 0.273566 2.63553 -0.510124 0.503763 1.02536 
-0.38095 3.58981 9.05133 -0.242416 4.34151 9.28665 -0.373988 4.99276 9.0968 
-0.379377 4.98414 8.34078 -0.404985 5.6491 8.70151 -0.542056 6.2873 8.37177 
-0.545594 6.30962 7.63558 -0.604757 6.98243 8.01708 -0.466414 7.68377 9.17688 
-0.763116 7.62288 8.40407 -0.640857 8.26328 8.81529 -0.70502 7.58387 7.65733 
-0.643792 7.57108 6.8987 -0.731176 8.21369 7.29387 -0.460978 8.8709 9.19478 
-0.180748 9.48453 9.42028 -0.692905 8.84837 6.9285 -0.620116 8.77715 6.15722 
-0.534603 9.40238 6.55767 -0.57114 9.38118 8.27652 -0.802102 8.87211 7.7386 
-0.679969 8.87921 8.50213 -0.356936 7.01839 9.49577 -0.439168 6.34009 9.09818 
-0.349282 3.66108 0.683527 -0.262028 4.26118 0.477831 -0.474494 4.98007 1.53925 
-0.32621 4.97481 0.753173 -0.417099 5.66913 1.17417 -0.492666 6.3151 2.29536 
-0.468909 6.31846 1.54951 -0.56766 6.97362 1.93044 -0.642528 7.59565 3.08635 
-0.634575 7.60746 2.29807 -0.706512 8.19719 2.70457 -0.608267 7.59653 1.54091 
-0.472797 7.63761 0.658191 -0.585826 8.19781 1.10211 -0.585544 8.78044 3.79083 
-0.704038 8.819 3.00798 -0.643066 9.52434 3.47618 -0.43983 8.85342 0.661959 
-0.313668 9.42936 0.351449 -0.635487 9.48038 1.69088 -0.760122 8.76487 1.49073 
-0.661723 8.85449 2.30143 -0.378861 6.97907 0.361243 -0.438826 6.28733 0.683208 
-0.397907 9.21769 4.96225 -0.771326 8.69371 4.56122 -0.671606 8.17199 4.19448 
-0.616177 8.7055 5.40278 -0.609488 8.18572 5.80312 -0.608087 7.61389 3.82455 
-0.524629 6.96237 3.46182 -0.485214 6.31119 3.05836 -0.431448 5.64719 2.68576 
-0.435435 6.3164 3.82945 -0.433346 6.32065 4.60786 -0.304356 5.65734 4.20932 
-0.642818 7.59664 6.16615 -0.58576 6.96514 6.53692 -0.35853 6.33551 5.39116 
-0.459511 6.32861 6.16576 -0.408823 5.66299 5.77903 -0.519563 6.30457 6.90738 
-0.482151 5.6513 7.27334 -0.476219 6.97031 4.99196 -0.593385 7.57344 5.38102 
-0.556222 7.56556 4.59095 -0.447731 4.98249 2.30801 -0.444574 4.30932 1.93007 
-0.453597 3.67636 1.53108 -0.461477 2.96187 1.14157 -0.473535 3.6501 2.30857 
-0.469399 3.64864 3.0628 -0.521839 2.98719 2.68647 -0.370242 2.2409 0.695449 
-0.381752 1.52208 0.361489 -0.372446 0.99557 0.731373 -0.572724 1.0279 1.49388 
-0.545276 2.32762 3.07893 -0.530962 2.32608 3.84759 -0.555098 1.68302 3.48695 
-0.6719 0.987125 2.28119 -0.598474 0.990362 3.07968 -0.568114 1.02724 3.89671 
-0.510089 1.03337 4.59956 -0.533246 1.68522 1.92618 -0.615235 2.35008 2.31972 
-0.57906 2.29162 1.52983 -0.465352 4.9658 7.64532 -0.464709 4.27731 8.02197 
-0.504612 3.64838 6.93725 -0.479508 3.65663 7.64491 -0.590842 2.99194 7.3031 
-0.580761 3.65898 8.33313 -0.470119 2.9558 8.71395 -0.552238 2.31082 6.14331 
-0.594645 2.33873 6.90177 -0.600976 1.68586 6.51334 -0.541346 1.01754 5.3775 
-0.588891 1.00503 6.13057 -0.70122 1.01705 6.88512 -0.711616 0.983849 7.70337 
-0.542572 2.27298 9.25244 -0.307897 1.59629 9.47616 -0.636973 1.01447 8.30827 
-0.315125 1.01688 9.21142 -0.835543 1.68445 8.03425 -0.672526 2.27715 8.40313 
-0.647233 2.33912 7.66628 -0.535443 1.66363 4.9937 -0.506882 2.31526 5.38674 
-0.458267 2.96925 5.76215 -0.498663 2.30569 4.61249 -0.434449 2.97 4.22521 
-0.3985 3.63984 6.16032 -0.392484 4.30767 6.56414 -0.449288 4.97839 6.92127 
-0.358285 4.98351 6.16905 -0.242325 4.98117 5.38253 -0.430011 3.63766 3.83196 
-0.42566 4.31297 3.44302 -0.348567 4.98056 4.59287 -0.315551 4.98041 3.81558 
-0.404297 4.98261 3.05635 -0.294076 4.2926 4.98654 -0.415838 3.63489 4.6055 
-0.339164 3.62005 5.38402 9.73603 0.429573 5.0404 9.99987 0.294318 1.79182 
9.78697 5.64268 1.94133 9.96202 8.04023 3.39861 9.90044 8.30404 0.331265 
9.69736 5.61344 7.96982 10.088 8.24162 9.48018 9.92062 8.17014 6.53029 
9.95427 0.282787 8.12897 9.81329 2.87287 9.24292 9.83334 2.92554 0.494786 
9.65439 5.64898 5.00043 9.77595 2.98195 3.46028 9.75352 2.98025 6.5393 
9.93483 0.280313 9.46218 9.81776 0.3343 6.46105 10.0682 0.325749 3.47019 
9.85662 0.31578 0.41345 9.84959 4.31733 8.50966 9.72019 5.51336 9.17446 
9.92066 6.96203 8.60109 9.73702 6.9523 7.29574 9.88238 8.14575 7.99779 
9.96732 9.38714 8.76131 10.2591 9.48186 7.27552 9.94618 9.3673 5.78869 
9.79853 4.3226 1.22406 9.72664 5.60718 0.489363 9.78576 6.97074 2.69053 
9.91842 6.97144 1.22779 9.95447 8.17127 1.92795 9.89759 9.32684 4.27915 
9.94365 9.3778 2.58409 9.90264 9.23869 1.09914 9.80787 8.1205 5.01934 
9.66189 6.94573 4.22954 9.69691 5.64951 3.45508 9.70811 6.97395 5.77029 
9.65426 5.65028 6.54105 9.74734 4.31739 2.69214 9.83832 2.987 1.94832 
9.98784 1.70183 1.16251 9.96433 1.69157 2.71656 9.85122 1.6692 4.23175 
9.7132 4.31516 7.30069 9.83781 2.98085 7.96307 9.82334 1.6666 5.76632 
9.91207 1.69404 7.28478 9.96103 1.6686 8.71249 9.72946 2.97875 4.99935 
9.68362 4.31445 5.77234 9.69505 4.31512 4.22841 10.063 0.470935 8.78596 
9.98744 0.277367 7.29211 10.036 0.245608 5.74057 9.89494 0.355221 4.21948 
10.0335 0.284978 2.69935 10.0549 0.495486 1.19202 9.92926 3.58892 9.054 
9.73899 4.3538 9.19304 9.71107 4.98256 9.04789 9.66312 4.96907 8.33549 
9.72495 5.64086 8.60544 9.76793 6.25681 8.3029 9.73139 6.32576 7.64287 
9.8796 6.99981 7.94934 9.68903 7.67727 9.05554 9.84641 7.56036 8.37164 
9.94069 8.17212 8.72256 9.91312 7.5392 7.64362 9.82827 7.56726 6.88656 
9.97523 8.13498 7.26844 9.99204 8.82391 9.09426 9.97947 9.56112 9.50439 
9.91086 8.76146 6.84789 9.99514 8.72078 6.15169 9.76812 9.37163 6.57874 
[...]
CELL_DATA 2484
SCALARS scalars double
LOOKUP_TABLE default
-5.4079139224 -6.1399543329 -0.11373579098 -1.0658840814 -5.363591935 -5.3634851402 -3.1239638491 -1.5908461072 -2.3411889055 
-5.8041445493 -6.4944039928 -7.3896878062 -4.6758573342 -3.6326420147 -4.522469282 -3.6254009088 -1.5093540117 1.7317688104 
-1.1073029063 -3.8851781013 -3.8928768731 -7.5503239215 -6.5143466494 1.0390794179 -0.42136619233 0.78087308348 0.80155220059 
0.230420031 0.95479284346 1.901554007 -0.71923813298 -0.42601450156 -0.99614482675 1.2163650094 0.77514830549 0.40206657914 
-1.4395134151 -0.75201601803 -1.2598753642 -0.88774982918 -0.68029307802 -0.76020882132 0.94864838756 -0.54526883861 -0.34139124467 
-0.58957635209 -0.85523965682 -0.8665600348 -0.33168239064 -1.2397760238 -2.557383863 -2.0206127885 0.4169775656 2.6863711997 
-1.2021109971 3.4073191253 2.8603143326 2.3517672745 4.0577477705 0.18443701416 2.810412672 2.1509549616 2.038924638 
6.0963288347 4.71820671 7.0343719634 7.9048033981 4.3801066348 3.8356180991 3.4626640429 3.9909893162 0.11670401665 
-0.87898926691 -0.16858689427 2.1604619564 0.11701108772 0.86720820267 0.92860634433 0.030152416356 2.8603532209 4.3612309711 
2.7319429657 -1.2494956115 -0.18660981748 -2.0368329311 -1.384351649 -1.7784703648 -2.5353212326 -1.3371886844 -1.5014395168 
-2.6095460863 -1.2835650798 -0.54664394326 0.63934041082 0.22398342657 2.1313232662 1.0312847258 -1.6769427411 -0.83040650369 
-0.97927120399 0.57074971081 0.27947113494 -0.16302539366 0.98763954407 0.30414193567 0.058952722903 -0.48567581058 3.560224798 
-0.38448062309 -1.012647504 -1.4674353138 -1.3066339328 -1.3715627263 -0.58859483875 -1.2458313047 -1.1311302775 0.28387205632 
-0.74742308106 0.085379016429 -0.76143729814 -1.4900592324 -0.68324020431 -1.1720894401 -0.85773856274 0.21682990476 0.75497512649 
2.1222028072 -0.13433708572 6.7211116933 8.4799049603 9.8289520496 8.2454163476 1.277304789 0.7053474539 4.0129182851 
0.53398494979 1.6816991774 3.1627875382 5.8371183133 7.1957041847 6.7445484283 3.1271949047 7.1025320052 0.46446884712 
-1.9453489226 -0.36869809509 3.1168923612 0.70702122623 -0.32138798115 0.32334941568 0.010018715075 2.0077531731 2.6042593096 
1.42447864 -0.32264736533 0.24984682209 0.048576628804 -1.736417795 -1.625670276 -2.2187556901 -0.4969296399 -0.6083779833 
-0.81482414434 -0.25439951559 -2.3680197378 -0.20366647003 -0.63016133913 4.4650317033 4.4330142868 4.6464098031 4.6480489669 
1.2709869258 -2.2662030036 -0.19462263843 2.8062659659 -0.055446771796 0.29417464861 -0.15737692451 -1.3608040094 3.1583528439 
5.4660548173 4.9453341918 -0.43701204433 -1.6429216711 -1.4936237117 -1.5415787991 -0.93759772842 -0.73031578105 -1.1703444194 
-0.85883473961 -0.93280729218 -1.3791578389 -1.80359217 -1.9302010885 -1.1750109627 -1.1427125405 -0.80546608386 -1.0022917891 
-0.40990825012 -1.6849360808 -0.40818924598 -0.92640134422 -1.1036362209 0.085536265525 -0.57402491042 -0.0040215527524 -1.846491775 
-0.94630843146 -1.2000740312 -0.76720272315 -0.85940251661 -1.5122190222 -1.1502228729 -1.4618783551 -1.1392031416 -1.8599558361 
-0.80517248098 -1.2233880246 -2.1806408724 0.077175259176 -0.33978282129 0.1742365106 -1.3878321688 -1.4687461286 -0.94121748464 
-1.5032004372 -0.75435178083 -1.1718322925 -1.8690003722 -1.6261834998 0.081096397325 -1.2457642826 -0.091774453387 -0.24256925468 
1.0695850239 1.6563529041 0.42556414784 0.78058285479 0.4893031867 0.61116252578 0.57144392344 0.75855578286 0.62850800156 
0.48005196197 0.9968235731 0.29764110573 0.22364197324 1.1262715614 -2.4659471879 1.9601525227 -0.80100081764 -1.3896836981 
-1.6675120527 1.1504558833 -1.3274831404 -0.31885883824 0.70023717061 -3.802719045 -2.2872543837 0.39307458576 0.30811486198 
0.27043664251 0.69535189711 -2.3216706661 -1.5694384596 -1.2598932105 -0.078685262153 -1.1774157486 -0.15973657891 -0.43644143047 
-2.0437956789 0.27280198666 0.40147896084 0.41823236649 -2.3025046972 1.6204337289 0.65120307273 1.3595912446 0.071313563335 
0.58401451615 1.5641141291 0.91191090146 0.83329388391 1.3846957011 -1.3289748737 0.28516262679 1.3561417066 -0.77930275308 
-0.82512056464 -1.0003843509 -0.39931295397 -0.02239780068 1.0704650027 0.6512565439 0.44442305078 0.93667988871 1.6794924326 
1.4840748582 0.59070102763 -0.59803863243 -0.013398632687 -0.067880127015 0.9263525138 1.9513692479 0.24776948341 1.115389801 
0.51699848419 0.70838563349 0.49439585938 0.43808698158 -0.42098830887 -1.5910767489 -2.4618121192 -2.4900594917 0.7635732491 
-2.6421676201 -1.834528667 -1.8431355076 -2.7725231308 1.1137127123 -0.11690683191 0.65664016724 0.42687809577 -2.6321857761 
2.0233899293 0.26589576706 0.098170258298 -1.0141610619 0.077728221356 -1.6063313153 0.39033258633 -0.87739572982 -0.80424446423 
-4.8920269566 -0.90982568931 -0.762789597 -0.57492419812 -2.3221632657 -2.2120733656 3.2483116863 2.0450644768 2.1951667473 
0.48377852004 0.82086145636 0.46654820862 0.4793105352 0.92300924797 1.4311186552 -0.40442978971 2.7109693049 -0.54924657854 
-0.35600190533 -0.4874945144 -0.14898644028 1.0029956265 0.79457648555 0.8440218703 1.0756587911 0.48712938703 0.8882672242 
1.0357304292 1.2214481345 0.88183222442 0.66241930926 0.90068754402 0.50543519712 1.3641909457 1.1504684447 0.22927150511 
0.90966438726 0.080293732735 0.016839774653 -0.13085088503 -0.36858513654 1.0821546887 -0.92738332009 -1.7423519569 -1.5514555739 
-0.42327026909 0.37044441362 -0.33096257876 -0.20050066623 0.65186606366 0.99474126847 0.5558384533 0.36161417932 -0.47641470071 
0.54577876699 -0.42143435658 0.41175788961 0.19930724504 -0.042113233744 0.064240235643 -0.08474027817 -0.33539750384 0.4203518606 
0.72117509526 0.98408368994 -0.36303657112 -0.75051227616 1.3308307915 -0.021982752346 1.8209914981 0.51475406064 0.35520436707 
0.17470525452 -0.083361634448 1.6965515741 1.5204653504 1.3489808094 1.0109699962 0.064567502422 1.7679719316 1.2504538513 
-0.258799185 -3.981294551 -3.0615915379 -2.7353879745 -0.11166853839 -1.5750640276 -0.78767171001 -4.6966597989 -6.2614527467 
-2.0090262761 0.48696047452 -5.2333442416 -5.9892357577 -5.026268312 -5.1139956662 -4.8128234116 -0.97927801776 -3.2439846571 
-5.5995372956 -1.9324112823 -5.2145590177 -3.8648663256 0.35051237177 3.0194326328 -1.1117958389 2.139553444 -0.70900433013 
2.1286635126 2.5713372808 -0.18200510737 -0.75622654056 -0.65198059941 0.79536320568 2.3687998866 -1.0578556518 1.2328762387 
-0.76496705004 -1.8180195551 -1.2128684794 -1.8226098887 1.9191864162 -5.1228541346 -1.0927910592 -2.9184436453 -2.213087295 
-0.2366761562 -1.9791694628 -1.7502532347 -0.028601440432 -1.7216912835 1.0151235961 -0.099905953618 3.400943593 0.30045687088 
0.23060031326 -2.1624867188 4.8436932911 4.0294223205 -1.4847221294 -0.4963570605 -0.58970504842 1.9305973717 2.6836827186 
5.6401753208 6.2052716608 -0.26653861261 3.349656924 -0.12364848013 -4.4329782889 3.2028394931 -0.31250191575 0.54627925244 
0.31573423978 0.96039063037 1.3562866058 -3.1681883018 0.33230930162 -1.7478329001 -2.1120231731 1.8689003713 -3.4131340926 
0.36605816162 -6.7661390169 -0.2139719909 -2.2453363555 -3.1534028475 -0.88796916844 1.818332766 0.67618978354 -1.9276795993 
1.3911426606 -1.2916501383 -2.0289151233 1.6221695572 0.092049000979 -1.2326611819 -0.84424686687 0.33699369555 -1.479028978 
0.035203546093 -0.69044360303 0.96276748203 -0.6361835715 -2.0105620375 0.70951602816 0.87706838483 -0.22766824171 1.084730762 
-0.11462614149 -0.57495591538 -1.0285738523 -0.71955808563 -0.18815709875 -3.7624406692 -0.73676824575 -1.5819578196 0.4559476704 
-1.8481520597 0.48967783376 -0.990725442 -1.548733496 0.56801683902 -1.1060417298 -0.33534696477 0.30598552189 -0.30413539882 
2.3377274035 1.8900885805 4.0778795245 8.1601443339 4.3874531035 3.5736804895 -0.029004705267 1.7262962903 2.1490629357 
-1.1254641167 2.6681444759 2.8425209008 5.7503271793 0.9178473159 0.87228688339 0.59070800664 7.0559835818 0.81605862414 
-0.55136557269 0.36212926554 0.33830239304 0.1058556337 -1.7139096924 -1.2921261858 -0.011700798195 -0.012612845938 1.8074027187 
1.7156469661 -1.1775709255 -1.0110202654 -3.251929283 1.1804278169 -0.62978994176 -2.904774154 0.027036656532 -0.55813692218 
-3.5103382237 1.2665900396 2.6337224939 2.0291911058 0.36740664332 -1.2181733868 1.012686734 6.7407844774 0.066022762454 
1.0098950263 -3.7700020017 -1.525262537 0.072770276674 -2.4866324786 -2.5474523364 -3.2071082496 -3.2704490778 0.78033642557 
3.2707287773 4.7135623058 -5.0779362121 0.56173955095 0.63197740508 0.45965598122 -0.62563141812 -0.29752800566 -0.01392797083 
-0.28957498835 0.18666252173 -0.08755756981 -0.07553901357 -0.19400629404 -0.023804730767 0.00050083053231 -0.51557293793 -0.13520941573 
-1.9371382828 -0.82549944004 -1.4523569088 -1.0176680353 -0.79252543783 0.28406547049 -0.33128614146 -0.033765413638 -0.33898611848 
-0.40278169576 -0.54675686567 -0.39625237326 -0.4975358009 -0.62200943538 -0.73433153412 -0.81325871096 0.082948147986 -1.078808431 
-0.31274093825 -0.84048740582 -0.76936248914 -1.1738225048 -0.98432483521 -0.2829709067 -0.32135133264 -2.0888908259 -4.7198410891 
-3.3355611284 -1.4582736159 -0.55900039824 -0.48180621817 -0.37214887237 -0.33492976227 0.53547531318 0.19363427379 0.59147833611 
-0.011293026991 1.4646989329 0.82840381559 1.9166615134 0.33061890747 0.58783027006 0.65442336514 0.66993802224 0.49390438679 
0.16689066952 0.3358558315 0.019966030905 1.7803677749 0.40049110125 0.65280602559 1.4495920891 0.52762315536 -0.52222535061 
-0.8183819153 0.51976366457 0.30947951303 2.2629395221 0.56422913869 -1.5777278353 0.86699446862 1.5587741288 1.721964999 
1.8252219833 -0.67219309923 1.2375212236 1.7712460207 1.4598098881 0.41953868846 1.8049290633 -1.2205409587 0.26725962751 
2.4572537036 -0.66957134883 -0.52019499676 -0.75924280498 -0.48158507638 -0.73606080422 1.3265232423 0.29875012106 1.5875205303 
0.80128389041 0.77757071646 0.74017999008 0.71297325869 1.198697921 0.88812466343 0.29075057435 1.2067071506 0.40785200613 
1.5246030114 1.0401613197 -0.19948094701 0.54794690065 2.3280937514 1.2091830373 0.36641932312 0.54870815561 0.98641720174 
0.61360290449 -0.064311240297 0.97593446173 -1.1490024299 0.93975381103 0.87182243842 -0.050310288775 0.069592608471 0.23389709748 
0.43820954512 1.0451710743 1.2294208839 0.95082930534 1.4791548319 -0.40452191993 0.25375902618 1.4637795726 1.6586130363 
-0.54723280231 -1.6792270913 -0.51779346534 -1.4255063781 1.082708747 1.0467881895 1.2606816539 4.39422755 -0.95413956683 
-0.93901579097 -0.79005597163 1.5031144965 -1.2916142226 -0.69811131703 0.06631863791 -0.55524069037 1.1566187434 -1.7933733768 
-2.1435373499 0.023699717569 1.5618780348 2.0903954687 1.3816079836 -0.25654592996 2.896971118 0.65597773605 0.56413253762 
1.2530698598 0.82018535911 0.50145995659 0.80762742451 0.87362918125 1.432786128 0.64937779137 1.5575327141 -2.7162851035 
1.9607633307 1.3042476649 1.9706970055 0.88971158576 0.32923439661 0.50769407857 0.47817151143 1.1770106087 0.46996662764 
0.24678479622 0.39274140269 0.57494868446 0.80781029698 0.66425954397 0.39249241088 0.58577575971 0.36191767326 0.12773224688 
0.25321471879 0.28473172421 0.15203367499 0.19431580901 0.081423928054 0.23008356649 0.25882625188 0.17620203666 0.22662571558 
0.35300001805 0.29221961206 0.30973241307 0.29285741562 0.53279284549 0.34357543237 0.28299745109 0.33922298212 0.20907814941 
0.18623463819 0.19757443024 0.3020994609 0.13794594314 0.029268220318 0.10188046509 0.19563478148 0.086266640111 0.29320331449 
0.21553338212 0.22851286305 0.20124989287 0.28778467704 0.27108418735 0.2365701421 0.372431747 0.49135117059 0.42503934401 
0.42451093661 0.24455752623 0.45754201103 0.66612624695 0.50170106131 0.3553876418 0.25853517433 0.31646479719 0.33031006683 
-9.1647896642 -6.7820416366 -7.7456247614 -8.0099612735 -9.3473083575 -8.5812712317 -8.507263663 -8.067059123 -8.7674615565 
-8.5287758284 -5.8583597779 -5.9087120539 -4.8814720702 -5.9197034059 -5.6289170426 -3.40176961 -9.8801088805 -5.0983706235 
-5.1456520338 -8.990263857 -3.2502015228 -7.7623301423 -6.5115824799 -8.4370780439 -8.7616263109 -9.2067170747 -7.1271392731 
-7.3958252436 -9.8920499122 -9.2120490849 -9.9949672731 -9.9764500536 -9.1877593353 -8.9337910931 -7.9417625776 -7.9744912294 
-9.9653872379 -9.9842282274 -9.9862627102 -9.9924297854 -9.7337563032 -9.69905938 -9.995984098 -9.6720187443 -9.9214971866 
-9.9652055914 -9.7990811836 -9.8583080312 -9.9962685181 -9.9364678182 -9.9129933968 -9.967234895 -8.221782053 -9.8976411298 
-6.1967519613 -8.7342021642 -2.9130308947 -9.74645935 -3.1512619317 -9.9957166013 -9.5894744541 -9.4583446711 -9.6242580313 
-8.5275221309 -9.9561155282 -9.8262308679 -8.8086821342 -9.0845581081 -9.8923404872 -9.6740865905 -9.0356701402 -9.7772493784 
-9.9631869791 -9.8222069017 -9.7161939987 -9.9868549889 -9.6453713015 -9.8141533793 -9.9956012206 -9.7103980962 -9.8865181483 
-9.8904530904 -7.9322276314 -9.9383437861 -3.1453065081 -9.8443928655 -9.9773165308 -9.5278432799 -9.8768873236 -9.7752346246 
-9.6519413033 -9.5649902435 -9.8742421497 -3.1722913312 -9.604814039 -7.4573843383 -9.8376014462 -9.1499701495 -9.3203757162 
-9.9044348677 -9.9931974593 -9.7410610743 -9.8992226549 -8.8972666458 -9.4082814349 -9.4076805171 -9.8385174272 -9.1319332032 
-9.9747040726 -9.9104169982 -9.9452686228 -9.9082813148 -9.9886199811 -9.9213944736 -9.9209160389 -9.9140724448 -9.7596535151 
-9.9945713981 -9.660066408 -9.7447050475 -9.9562648174 -9.9877620266 -9.9845649163 -9.9727625836 -9.9385161352 -9.692096356 
-9.4777061552 -9.4511597962 -7.4494297332 -9.8756614539 -9.2615921646 -7.9379746134 -9.7133163789 -8.0877714969 -9.225953382 
-9.4899972227 -9.3408216218 -9.6478064535 -8.418880326 -7.9357922205 -8.040754255 -9.451392719 -9.7038056425 -9.5096493837 
-9.994775897 -9.3876489545 -9.7813651107 -9.9634018301 -9.9216568935 -9.9608195952 -9.9879282145 -9.7286117615 -9.3587358475 
-9.9731966695 -9.8039571089 -9.5914195813 -5.5542416034 -9.1063504621 -9.7953186947 -9.7245244854 -9.9753135682 -9.9294091692 
-8.9074124536 -9.7539086798 -5.5875507492 -8.6777292968 -9.2064894567 -8.0704225397 -9.8922179481 -9.8006432103 -8.1394692278 
-9.9992462346 -9.8857338987 -9.891016128 -9.2891808933 -9.8906440196 -9.9205738469 -9.9215947394 -9.9009405679 -9.3779198065 
-9.99512819 -9.8974035009 -9.9450549769 -9.9112086215 -9.9861757668 -9.9070948118 -9.9027755803 -9.9964130857 -9.9548262323 
-9.9796582939 -9.9238987259 -9.9958459983 -9.919072028 -9.9906397574 -9.9854455227 -9.9472746729 -9.9020392859 -9.9530968757 
-9.9714540566 -9.9544210035 -9.9660754958 -9.9638219511 -9.9449122877 -9.880994671 -9.9005991768 -9.9450679507 -9.8882944792 
-9.9872500957 -9.8536111513 -9.8309575298 -9.9033365533 -9.9402001815 -9.8299981629 -9.817006672 -9.8825151149 -9.9861844302 
-9.9258608486 -9.9773461817 -9.9511824846 -9.9271317559 -9.9070191298 -9.9758635844 -9.9783358456 -9.8387799071 -9.9510748597 
-9.8876572511 -9.8721050706 -9.9822997913 -9.9237250236 -9.9270981431 -9.9880368159 -9.9978486187 -9.9864179906 -9.9848644852 
-9.9588188533 -9.8188038588 -9.8871699493 -9.8526757926 -9.9588941336 -9.9136424595 -9.9425931155 -9.9403672494 -9.8668539721 
-9.959308834 -9.995819941 -9.9885014526 -7.7683224484 -9.8162020488 -9.2889941404 -8.3513826708 -9.8529561932 -9.2153540949 
-8.585859288 -8.6634371174 -9.8778697842 -8.0010776137 -9.8680241034 -9.3694335114 -9.362109474 -9.8449251611 -9.7181893547 
-9.9420220694 -9.9352095054 -9.9518573805 -9.9807025642 -9.9909852348 -9.2078886601 -9.6458390913 -9.454628034 -9.6417504245 
-9.9806280773 -9.8609782884 -9.8505472344 -9.9490505767 -9.9362222845 -9.9414288477 -9.9907510103 -9.939302459 -9.9159173228 
-9.8672216856 -9.9151975023 -9.9058559805 -9.8281849685 -9.9387653737 -9.991172976 -9.9298432296 -9.9756572705 -9.963387288 
-9.9549181108 -9.9800331975 -9.9689155125 -9.9916629827 -9.9328456609 -9.9692011577 -9.9223913789 -9.9221475906 -9.9968619401 
-9.904926448 -9.5611033116 -9.953040879 -9.3428814357 -9.9602744973 -9.9452536729 -9.6130378402 -9.942396952 -9.8465573875 
-9.9359197786 -9.9539024328 -9.9312722328 -9.9480305258 -9.9955572948 -8.9309491905 -9.2990816334 -9.1427121496 -9.8042535982 
-9.256645885 -8.5386798364 -9.0961811752 -9.1723160314 -9.9388939422 -9.9968475194 -9.9410687688 -8.7807456601 -9.2931740683 
-8.8571972932 -8.2235159212 -9.5792589727 -9.7845922678 -9.289479174 -9.7819893608 -9.5983216034 -9.3033869711 -8.9952285259 
-7.1927967654 -9.9282789064 -9.9228574286 -9.7804084503 -9.6259297433 -9.6455803343 -9.5649780542 -9.8472630136 -9.7528770923 
-9.873706994 -9.7067535085 -9.9428568357 -9.7722319239 -9.7402159233 -9.9715889604 -9.9818336833 -9.9691241514 -9.6461800879 
-9.9528093853 -8.9364039022 -9.4100030893 -9.9782954765 -9.813412026 -9.6877174163 -9.7248917921 -9.5573652794 -9.9420085248 
-9.9416593192 -9.9417504764 -9.7882520504 -9.5446154723 -9.9074991727 -9.7240784921 -9.8281794975 -9.9444375763 -9.9306599287 
-9.9221214512 -9.9314042418 -9.9527623322 -9.9934651211 -9.9612813571 -9.9887935584 -9.8653092581 -9.9565514726 -9.986076611 
-9.8788775924 -9.8886688677 -9.9274191853 -9.882777151 -9.8847869663 -9.9841150473 -9.9210315421 -9.9133109148 -9.9678874916 
-9.9207538796 -9.9613244485 -9.9491410456 -9.9781945507 -9.9416452011 -9.9928043517 -9.9572509701 -9.9522412164 -9.9703757617 
-9.972743631 -9.9569706584 -9.9505197956 -9.966818835 -9.9868122864 -9.9702755208 -9.9838664716 -9.8871979668 -9.9243363566 
-9.9197636616 -9.9609511118 -9.9884039795 -9.8044186594 -9.9943941487 -9.9745468269 -9.9503089843 -9.9703007526 -9.9495993625 
9.5531665516 8.2833897098 8.4727373292 8.314924773 9.8387655004 9.0203379077 9.6388488408 9.6913733368 9.6147375611 
9.6146239583 9.8087673844 9.8972417298 9.0844478701 5.8879468204 6.670341799 9.634691545 8.8021842282 5.2724276838 
7.4420552414 9.6775811052 9.8859591077 9.8895516367 9.8187386926 9.8635108173 5.7520093054 9.9175980245 9.8566058167 
9.9168633188 9.9957831419 9.9027693447 9.9158714939 9.9964493864 9.9609734725 9.9106023199 9.5147837583 9.7674364268 
9.9085974174 9.9311662683 9.8353218853 9.8962379129 9.9595009252 9.8403523113 9.5378243985 9.5130784712 9.9574223602 
9.977062742 9.9557022916 9.9534149665 9.9099613127 9.8602539456 9.9400846933 9.945353606 8.2369336243 8.8102257906 
9.8571626076 8.6552495259 9.9517420763 9.9060869471 9.9651966859 9.989135809 9.9527809197 9.9923956093 9.977942588 
9.7209141256 9.9939549265 9.9107913907 9.8732478177 9.7032173999 9.824661799 9.8038706005 9.7659916175 9.9858119661 
9.9675252931 9.947786231 9.2017296922 9.8990018245 8.9281230143 9.7509319097 9.9575849884 9.8423084624 9.7072822518 
9.990216764 9.9284500468 9.9664334155 8.7669387203 9.9612569049 9.8848334385 9.8801580607 9.9801718409 9.0520030928 
9.6946344748 9.9117626863 9.9641042938 8.8086601963 9.9270536752 9.9194225935 9.9986719905 9.3962837422 9.7261179758 
9.9784388348 9.978843901 9.9421226097 9.9846278956 9.4144356586 9.6442560304 9.5045077084 9.9699262617 9.8797571206 
9.9747937602 9.9558182304 9.7974793657 9.9539393113 9.9334916902 9.932569421 9.9412105341 9.9285263475 9.9950814426 
9.9883951359 9.9429558589 9.9960980069 9.9078226395 9.8147268906 9.9444155797 9.8444683677 9.9741756907 9.9856944993 
9.6688415257 9.9565168993 9.2378530728 7.9129047198 9.2730012295 9.0112086146 9.9211088595 9.3527123472 9.7909895302 
9.7908926918 9.9140353482 9.9100975497 9.3657470805 9.7455083019 9.7243034834 9.9117318407 7.9278323419 9.9469892379 
9.973846344 9.9932783689 9.8677095315 9.9271942266 9.958687893 9.8976589876 9.9743541125 9.9767350255 9.9240117598 
9.9792356059 9.8905077915 9.8929228837 9.3808255741 9.7738157861 9.8344670102 9.9463839767 9.9763120968 9.9315791309 
9.7562958281 9.9468475573 9.6163209277 9.8609403313 9.9278146081 9.8467394545 9.9798290906 9.8794184361 9.8634090041 
9.9715777617 9.9973106733 9.9703312283 9.9686522003 9.9965175509 9.9570423877 9.9644546357 9.9957359753 9.9647967263 
9.9999741052 9.9999608886 9.9690780352 9.9678073707 9.9817294742 9.9711474171 9.9734484895 9.9883375604 9.9846526735 