# vtk DataFile Version 5.1
vtk output
ASCII
DATASET POLYDATA
POINTS 1244 float
0.158553 0.0748989 0.0967108 -0.0922817 -0.206045 9.94116 0.0216641 9.61994 0.0356526 
-0.262582 9.91889 9.88445 9.54021 0.0260464 0.0669355 9.68751 -0.0645168 9.61984 
9.90795 9.80441 -0.0173016 9.83334 9.81921 9.81707 -0.249799 -0.229069 0.958258 
-0.413783 -0.447798 1.81134 -0.258861 -0.263887 2.89452 -0.268673 -0.340003 3.8686 
-0.268151 -0.244411 4.96081 -0.499592 -0.457277 5.98217 -0.276885 -0.205548 7.03563 
-0.341462 -0.259704 8.05059 -0.264282 -0.150114 8.77498 -0.141655 0.854157 -0.148134 
-0.166631 1.90117 -0.241323 -0.104936 2.86665 -0.127663 -0.0576548 3.83746 -0.089022 
-0.137267 4.96184 -0.138419 -0.106597 6.08441 -0.0925879 -0.250246 7.08112 -0.296423 
-0.260456 7.97829 -0.258277 -0.236723 8.92642 -0.255246 -0.207635 9.74147 0.862361 
-0.314757 9.68217 1.83072 -0.267791 9.68844 2.82924 -0.13056 9.44415 3.87241 
-0.256762 9.70233 4.90083 -0.177882 9.50066 5.97431 -0.367097 9.81577 6.90753 
-0.332056 9.80076 7.99365 -0.122749 9.74129 8.82883 0.0103007 0.856897 9.55015 
-0.229355 1.87009 9.70377 -0.0736413 2.90308 9.56992 -0.12271 3.85933 9.45082 
-0.11173 4.94956 9.4566 -0.225851 6.02498 9.73265 -0.148868 7.03475 9.63906 
-0.355972 7.93858 9.81929 -0.0794414 8.86664 9.66975 9.69716 -0.246618 0.871599 
9.9509 -0.426623 1.83983 9.63184 -0.226817 2.85406 9.73664 -0.309375 3.92058 
9.71342 -0.343093 4.96536 9.55842 -0.143877 6.00859 9.73361 -0.291185 7.06495 
9.75052 -0.336873 8.05263 10.102 -0.594445 8.89174 9.73578 0.846226 -0.276141 
9.54527 1.96493 -0.197148 9.66309 2.90268 -0.173553 9.53064 3.87801 -0.118923 
9.48602 4.96892 -0.0764184 9.48917 6.1077 -0.0893983 9.6924 6.9605 -0.28094 
9.70092 7.91013 -0.442782 9.65598 8.88968 -0.233277 9.65171 9.52388 0.821674 
9.79292 9.78142 1.67465 9.64413 9.47673 2.70699 9.66907 9.52852 3.70589 
9.52781 9.40853 4.85362 9.76395 9.76161 5.97175 9.7444 9.73599 6.99237 
9.83666 9.72026 7.98176 10.027 9.91208 8.92585 9.86886 0.816144 9.78687 
9.91648 1.91404 9.8619 9.60708 2.88984 9.49346 9.50545 3.9186 9.53334 
9.4316 4.93786 9.56671 9.68905 5.99317 9.68319 9.33783 6.92186 9.4111 
9.61996 7.89508 9.64138 9.85993 8.92659 9.9057 0.92608 -0.205516 -0.0907058 
1.91997 -0.367496 -0.225144 2.91427 -0.109658 -0.156117 3.88599 -0.278417 -0.0465665 
4.99782 -0.249532 -0.132909 6.07029 -0.291364 -0.169953 7.04511 -0.233529 -0.346558 
7.94993 -0.267617 -0.200106 8.92459 -0.396211 -0.310221 0.945507 -0.179233 9.73032 
1.83815 -0.321402 9.65034 2.91889 -0.182486 9.65412 3.90066 -0.290221 9.45188 
4.97728 -0.327842 9.56235 6.02486 -0.301645 9.40876 6.94901 -0.154099 9.64758 
7.89764 -0.463325 9.67442 8.95503 -0.38505 9.71681 0.84285 9.65446 -0.171906 
1.8329 9.82859 -0.275747 2.83569 9.59505 -0.173268 3.86717 9.66886 -0.0504465 
4.9388 9.50942 -0.0622239 5.99377 9.71498 -0.154192 6.95062 9.61169 -0.183604 
7.79792 9.99506 -0.374494 8.80343 9.8502 -0.116755 0.84899 9.8536 9.82836 
1.92646 9.84746 9.74415 2.90178 9.60884 9.57605 3.73957 9.72411 9.42008 
4.84036 9.81813 9.519 5.9162 9.59397 9.30477 6.79715 9.66743 9.562 
7.91646 9.82736 9.74295 8.89129 9.97265 9.91688 -0.580666 0.370683 4.9365 
-0.531753 0.264353 1.73341 -0.664495 5.6337 1.92168 -0.895785 8.1706 3.44104 
-0.61328 8.319 0.202069 -0.803245 5.62156 7.96197 -0.46463 8.31906 9.42807 
-1.0361 8.17543 6.51524 -0.839413 0.152096 8.18776 -0.435789 2.84678 9.34874 
-0.504718 2.95211 0.27669 -0.690951 5.65628 4.9876 -0.754596 2.98915 3.45979 
-0.817517 3.00736 6.52048 -0.324708 0.343013 9.2784 -0.688424 0.215651 6.57713 
-0.542031 0.243544 3.39913 -0.215809 0.366477 0.370075 -0.563664 4.3204 8.59666 
-0.356504 5.62776 9.13369 -0.879375 6.96638 8.7452 -0.960959 6.91725 7.25176 
-1.06733 8.21262 8.02619 -0.64218 9.33318 8.84025 -0.544738 9.29944 7.38343 
-0.608873 9.28018 5.71142 -0.499428 4.34841 1.14922 -0.400588 5.60383 0.413989 
-0.829506 6.91156 2.68726 -0.712767 6.93962 1.08889 -0.876118 8.13478 1.90252 
-0.516409 9.24276 4.2561 -0.680559 9.34589 2.58246 -0.568022 9.25942 1.08034 
-0.865479 8.123 4.97405 -0.817648 6.95493 4.21604 -0.712602 5.6471 3.43034 
-0.908454 6.95025 5.76048 -0.75819 5.63482 6.56232 -0.651937 4.32521 2.68341 
-0.735761 2.99765 1.92786 -0.707065 1.6628 1.08059 -0.795649 1.68384 2.6899 
-0.78731 1.68042 4.22025 -0.795788 4.3181 7.28663 -0.911952 3.00655 8.00923 
-0.935466 1.66948 5.7412 -0.893931 1.68269 7.27643 -0.70661 1.56664 8.6633 
-0.734133 2.95349 4.99251 -0.702578 4.2943 5.77642 -0.659154 4.30551 4.19878 
-0.525798 0.467741 8.62983 -0.715062 0.248669 7.42253 -0.57208 0.28293 5.72599 
-0.543986 0.257705 4.21526 -0.648078 0.232831 2.55819 -0.466148 0.529069 1.07517 
-0.493169 3.62969 9.06838 -0.347314 4.28527 9.13612 -0.58334 4.97249 8.94593 
-0.806607 4.96519 8.27701 -0.624992 5.63415 8.5535 -0.842127 6.28826 8.38052 
-0.842707 6.26877 7.64074 -0.907548 6.93107 8.01393 -0.764209 7.65616 9.21007 
-0.903175 7.54611 8.4467 -0.869319 8.1784 8.78885 -1.0338 7.53125 7.63882 
-1.06684 7.55614 6.88294 -0.95752 8.15588 7.2558 -0.745404 8.84868 9.34429 
-0.309487 9.27938 9.44489 -0.907066 8.80328 6.89572 -0.734563 8.72454 6.16025 
-0.702364 9.31521 6.53485 -0.586182 9.40452 8.17517 -1.04048 8.81931 7.68938 
-0.875816 8.76105 8.40224 -0.390881 6.99158 9.35962 -0.519657 6.32998 8.99727 
-0.449401 3.64338 0.689673 -0.351489 4.31981 0.468009 -0.615243 4.97647 1.54492 
-0.515397 4.95069 0.760136 -0.570832 5.65411 1.17692 -0.743506 6.29294 2.29501 
-0.698747 6.28554 1.52737 -0.820208 6.92145 1.92512 -0.894906 7.53979 3.07077 
-0.876969 7.545 2.3047 -0.880977 8.20055 2.65789 -0.90138 7.55559 1.49866 
-0.647315 7.59611 0.627393 -0.81562 8.13901 1.04084 -0.733917 8.7297 3.78713 
-0.772404 8.76093 2.96534 -0.617967 9.32515 3.36815 -0.620503 8.74022 0.603239 
-0.327616 9.35254 0.29676 -0.597701 9.41912 1.70315 -0.821451 8.74933 1.49348 
-0.899743 8.78006 2.2642 -0.499389 6.98644 0.310828 -0.565526 6.27393 0.643102 
-0.506645 9.09913 4.97702 -0.76695 8.68549 4.57449 -0.8324 8.13713 4.19994 
-0.827761 8.66702 5.37602 -0.956156 8.13792 5.81585 -0.884806 7.54308 3.83945 
-0.835204 6.90848 3.46711 -0.754669 6.30312 3.05238 -0.681249 5.64312 2.68408 
-0.721736 6.31396 3.81729 -0.781066 6.32518 4.58927 -0.68979 5.66056 4.19333 
-0.9377 7.57188 6.15557 -0.927027 6.90992 6.51314 -0.791368 6.3301 5.38732 
-0.845345 6.30992 6.15562 -0.715826 5.65521 5.78656 -0.869392 6.26801 6.89919 
-0.816434 5.63347 7.27296 -0.86474 6.94886 4.97491 -0.911246 7.52581 5.34272 
-0.916729 7.50976 4.61203 -0.643322 4.9798 2.29553 -0.618304 4.31888 1.9213 
-0.679676 3.69204 1.50745 -0.630254 2.96262 1.09888 -0.668722 3.66251 2.30142 
-0.68547 3.64705 3.05255 -0.759892 3.00729 2.69068 -0.516591 2.23553 0.61839 
-0.384005 1.49576 0.364492 -0.507586 0.95615 0.686798 -0.649554 1.00975 1.47659 
-0.780939 2.33184 3.08878 -0.786829 2.34009 3.83917 -0.800745 1.6983 3.47238 
-0.771007 0.991298 2.27945 -0.72174 0.961054 3.08468 -0.767482 0.984341 3.86623 
-0.798991 1.0242 4.59207 -0.829025 1.68215 1.9389 -0.821604 2.36331 2.31891 
-0.727498 2.31429 1.50631 -0.770859 4.95106 7.64333 -0.666914 4.3075 7.98903 
-0.812941 3.67221 6.92688 -0.756028 3.66559 7.63111 -0.796757 2.98543 7.26661 
-0.698813 3.68551 8.33705 -0.673002 2.93622 8.7074 -0.82737 2.33139 6.13551 
-0.90556 2.33942 6.87849 -0.949197 1.6984 6.50607 -0.867475 0.999397 5.3853 
-0.779975 0.992013 6.09734 -0.944354 0.947182 6.91422 -0.816394 0.922933 7.7048 
-0.568412 2.16475 9.08227 -0.504462 1.52587 9.34914 -0.713193 0.982446 8.37756 
-0.625988 0.932164 9.08628 -0.951418 1.61341 8.02005 -0.849148 2.28344 8.40872 
-0.919392 2.33456 7.63348 -0.781561 1.67335 4.99724 -0.814688 2.327 5.38464 
-0.758186 2.9646 5.76044 -0.791506 2.31563 4.6146 -0.70562 2.95794 4.21752 
-0.746675 3.63696 6.16516 -0.728598 4.29888 6.5715 -0.779803 4.97039 6.92773 
-0.729647 4.96969 6.17071 -0.697519 4.97502 5.38125 -0.68703 3.63349 3.81604 
-0.646566 4.30971 3.42016 -0.637441 4.97604 4.57827 -0.645918 4.98677 3.79166 
-0.661267 4.98833 3.04666 -0.664586 4.29385 4.97831 -0.68595 3.61808 4.59467 
-0.693577 3.61391 5.39304 9.68965 0.454414 4.96259 9.83468 0.232938 1.86116 
9.63247 5.63948 1.93928 9.79071 8.04726 3.40744 9.84658 8.24906 0.269551 
9.51517 5.59867 7.85784 9.86792 8.28254 9.41904 9.77857 8.06683 6.54069 
9.91695 0.299747 8.07175 9.77468 2.88393 9.23529 9.75854 2.92327 0.4407 
9.46555 5.64467 4.99714 9.6699 2.98539 3.46156 9.60761 2.98613 6.53101 
9.85225 0.294676 9.24863 9.84019 0.325806 6.5029 9.84975 0.311753 3.45816 
9.78787 0.40412 0.444998 9.66801 4.27246 8.50597 9.60276 5.61561 9.11841 
9.77347 6.86202 8.5319 9.63387 6.96012 7.27335 9.89312 8.08554 7.93445 
9.99707 9.28108 8.73459 9.89115 9.37264 7.34095 9.6667 9.16854 5.82241 
9.67184 4.32699 1.22465 9.62997 5.59329 0.471213 9.62984 6.9247 2.69352 
9.75628 6.95362 1.19933 9.88946 8.10919 1.90202 9.73458 9.10219 4.27518 
9.71951 9.14146 2.49703 9.90615 9.13733 1.02247 9.65487 8.01278 4.99956 
9.4968 6.92455 4.22937 9.53682 5.64859 3.46063 9.49871 6.93605 5.7505 
9.46159 5.64858 6.53183 9.6225 4.31765 2.69345 9.76409 3.01052 1.96823 
9.79305 1.72095 1.1693 9.81848 1.71867 2.73007 9.74355 1.68111 4.2477 
9.46282 4.29487 7.26547 9.85484 2.97692 7.89044 9.69325 1.69626 5.76407 
9.82339 1.72018 7.25377 9.9281 1.65436 8.6644 9.61768 2.98308 4.99757 
9.52324 4.31041 5.77023 9.54976 4.31315 4.22708 9.98253 0.444696 8.72741 
9.88259 0.329197 7.28474 9.74122 0.327934 5.7004 9.70582 0.372318 4.22451 
9.94424 0.285777 2.61027 9.89716 0.502641 1.17063 9.83374 3.63347 8.99735 
9.58017 4.2621 9.20221 9.52102 4.91219 8.90582 9.56613 4.97692 8.22949 
9.54066 5.65294 8.4563 9.58683 6.25214 8.19474 9.55776 6.30767 7.55992 
9.69474 6.94374 7.86546 9.66541 7.63288 8.98006 9.69228 7.52397 8.29047 
9.93165 8.16049 8.65884 9.75795 7.50516 7.55715 9.68931 7.51962 6.88191 
9.86878 8.05932 7.27696 10.1489 8.80949 9.18155 9.84937 9.50451 9.4783 
9.93237 8.65437 6.83526 9.8057 8.62914 6.14268 9.92785 9.32448 6.54529 
9.89557 9.35238 8.07997 9.8653 8.73195 7.53239 10.1767 8.7136 8.25967 
[...]
CELL_DATA 2484
SCALARS scalars double
LOOKUP_TABLE default
-7.817888984 -2.4983548337 -1.6383790584 -3.3614542114 -7.2772685681 -6.9629599254 -4.8790163388 -1.4611709784 -1.8064520924 
-6.5450415747 -4.5201805519 -4.208140332 -4.528293404 -5.6569010661 -5.131504309 -1.8354009783 -2.2326250521 -4.5972047784 
-4.4448234484 -2.4180974168 -1.7704694721 -4.3645056806 -4.5386800641 -0.13887012855 0.78176567387 1.6398032235 1.7043941689 
0.97000398277 -1.9538679247 1.8953873205 1.4064823049 1.2627423301 -2.15673128 0.050563650642 0.58935580007 -0.65355852325 
-0.59693167807 -0.77362641418 -1.3713655606 -0.99332663657 0.4825003453 2.2205877563 -0.81963217477 -0.4786197973 -1.4166527747 
0.32860563353 1.1302774259 1.5009460145 -1.3936192782 -1.6208985314 -0.2068088742 -1.0604292418 -0.89109314529 5.9134016391 
3.1949139646 2.3377440171 1.8043682651 7.3226546318 -2.4062136428 3.3749288806 4.6679977228 1.2805074201 2.06602737 
3.5385805319 9.0717126322 6.8923350622 4.5749029953 5.9866336255 6.6820452512 7.8626058718 4.9987727953 1.368587979 
-0.33157806316 -0.15173106668 3.0794516625 1.5842279598 -3.1892416558 0.75153242288 1.7283413839 4.001506287 6.720342326 
4.6671362223 2.3341947681 -2.8266554804 -2.9049460314 -2.9267826399 -2.3321244573 -1.2854439924 -1.6541444928 -1.8146586797 
-1.5781324362 -0.18342898729 -1.8843353378 1.1720201575 -2.7371116725 0.6243710033 0.70708515914 -0.82308252061 -0.19515709585 
-1.0505603507 -0.027797684785 0.54121782577 -0.034652301971 0.43286635609 -0.593989398 -0.43783194476 -1.5695667271 2.9204214268 
-0.86836796565 -1.2910786499 -1.0760484182 -1.533813597 -0.89056555701 0.094899919622 -0.027781411178 0.064756071746 -1.0378888598 
0.91643603959 -1.0437521851 -0.8117958943 0.22278054921 -2.1083505605 -0.82656905315 -1.0791829149 2.4630268321 2.7986748747 
2.0744795081 2.2745120952 7.252652639 7.4579421399 8.4154191503 9.2545805694 3.1655332461 3.0239085401 4.7710792007 
2.5750415677 5.3675159618 5.312371165 6.4210517422 7.3861165967 7.330601122 2.9048507273 7.6167916057 1.7045496396 
0.42221681186 1.5327052018 2.6605417399 -0.34678835242 1.9603672917 0.90806570351 0.20678237708 3.8717649081 3.5154159895 
3.4535877106 -0.93187892913 -0.11825354593 0.055753354165 -1.5132569381 -1.1918212868 -1.675875014 -1.2863379614 -1.1770356643 
-0.30679724371 -0.34756487602 -2.1022791265 0.21643970271 -2.3857174682 3.5077805503 4.0247459848 8.204830132 3.9086965636 
2.2459469709 1.4504773988 1.4103985716 2.8978639753 1.4832765448 4.1410539073 3.0510684638 1.2204529785 4.3581972792 
4.5616612429 5.6595855418 -0.091279391606 -0.98911673567 -0.9491537366 -0.85762350097 -1.2967159024 -1.0751480662 -0.87644850028 
-1.0323241123 -1.019267746 -0.31337560303 -1.3478804187 -0.91701141419 -0.38933722579 -1.6827427537 -1.2665286366 -1.6179734754 
-0.55533794495 -0.30306291157 -1.8757500913 -1.1086990838 -1.4238818293 -1.2929558935 -1.6214632236 -1.5363977498 -1.5853376475 
-1.3032075572 -0.51837986419 -0.62064762955 -1.5189392747 -1.1581738932 -1.1681280336 -1.1226978788 -1.4047223773 -1.5340858723 
-0.94702674512 -1.2564827288 -0.27324616952 -0.97012083641 0.099697513338 -0.50336303712 -1.4298921353 1.0693153308 0.36398592039 
1.0966344314 0.79923428991 -1.3209381474 -0.45066964646 -0.8627622734 -0.53517315652 -0.84005098869 -0.12912170592 -0.16699888547 
1.1183166316 1.6809904795 0.035913993112 0.89102961546 0.37697755916 1.1854670608 1.102716488 1.2640945694 0.90785161769 
0.50893381863 1.8911262659 0.86333302214 1.278786577 -0.24214686473 -1.4001532349 -0.42457485914 -1.8352351173 -3.1737417901 
-2.143165584 -2.3534182303 -0.32441330501 -0.55025235254 0.44739126594 -2.4925280341 -0.27992497504 0.27005970547 0.11259351011 
0.26323843416 -0.69987636766 -2.0980050273 -1.8905609748 -1.3993353025 -0.06585008531 -2.9275916884 -3.1624965962 -3.0467265906 
-2.6264925161 -0.37138955561 -1.0418517167 -0.77246960982 -2.0486021246 -0.61824157504 -1.6784550479 -1.5652195889 -0.095587689338 
0.35691726164 1.1411623643 0.63602354307 1.2654649164 0.67473185768 -0.55179157674 0.0066295035405 0.61092123269 0.61657636701 
-0.13900705813 0.77338473566 -0.21683975684 -0.62321190989 -2.7418461496 -1.8598800146 -0.18298136053 -0.099415642719 1.4196626377 
0.16433183648 0.90830364236 1.3236948906 0.58137049123 1.0378702614 2.6770240973 1.4123945134 0.35596917862 0.94416625889 
0.74348212699 1.752078078 0.26008920333 1.2823186126 -1.6243202947 -3.9467758113 -2.0582628662 -3.3296523105 -0.10843809483 
-3.2311178678 -0.76766183632 -2.0807546597 -2.3813216881 0.32792935199 -2.2811136891 -1.1605014591 1.8725877303 0.22630779167 
-2.5943523067 1.3413548089 -0.46890213953 -0.098510206967 -3.9267362056 -2.988264197 -0.40033481587 0.69096722159 1.1734255739 
2.6582741077 -2.2214209525 -1.5651911457 -1.5131355978 -2.629034058 -0.50144793133 0.44284139851 1.0154604765 0.67129703789 
-0.2890418108 0.97700841934 1.4737019738 1.7592426148 -0.38011010805 0.031170858083 -0.61079639526 0.95498913132 -3.585472523 
0.08210630682 0.22100193176 0.78668126771 1.7137641102 0.60674624375 1.0731680913 0.98417412918 -0.028066768029 1.1061092941 
0.89035713721 1.3142199748 1.0804348873 -0.11135542592 0.70053364788 -0.33094220543 0.61443745931 0.79467105349 0.47488150913 
0.82452017102 0.31837341255 -0.56829106806 -0.12515539908 -0.60777518507 -0.16241278684 -0.10579964785 -0.083509877211 -0.026514710919 
-0.038976432983 -0.21028474137 -0.2666738533 -0.41001541141 1.0438717591 0.50461968027 0.53953447507 0.59153697115 0.26070445668 
-0.77299393553 -0.83484236424 -0.70777901846 -0.0098861023586 -0.53500917296 -0.44573981376 -0.4342053176 -0.89438085738 -0.17853735473 
0.097967669834 -0.10332254158 -0.33502681923 0.35996777161 -0.20168628835 -0.040749573303 0.40204828511 0.67280350038 0.5055216844 
0.28668860998 0.2588607555 0.80807639769 0.65991269455 0.59332374219 0.66837472993 0.13581770397 0.35247899047 0.36901251831 
-2.1581850621 0.65653362769 0.94675792928 1.5334645282 -2.511442884 -2.1575666097 -3.4077302226 -4.2181367101 -2.4553277774 
-2.2434995479 0.29843691746 -0.39200022927 -2.5973611273 -4.7786901296 -3.6392628348 1.7618262948 -2.1214538192 -3.1169395197 
-3.2754757816 -2.5359013719 1.762897049 0.34761336917 0.29497496759 2.4164934615 0.61740511841 3.3656880591 0.86014811697 
2.168190139 1.7414358403 -0.85647150461 0.53468549176 0.14794686368 1.4670267529 0.60312243902 -1.5547366687 1.4715779579 
-0.8195018091 -2.1771527016 -1.6072997941 -1.8209581056 1.2830572338 -3.7824165478 -3.447090355 -3.9978201264 -1.6937242338 
-2.0953722512 -2.3262287141 -2.4498943501 -2.8263723013 -1.6824497302 0.82514051736 -0.62164909958 -2.8741144737 3.6802253449 
-3.0626798936 2.5512155352 -1.592499861 -1.1450201533 0.31551305986 -1.6816160457 0.25983849839 0.35888585904 -0.69977674037 
3.0308959888 -0.72789822835 3.8214507821 3.8992744378 0.97982990633 -0.1117376227 -0.0038416783215 1.5771826519 -1.9403122397 
0.19513055146 -0.32560989645 3.039620852 -4.088635082 -4.1511534808 -3.6405843315 -2.0375093962 3.7664270079 -0.42448128587 
2.8456561908 -4.2769499679 -0.90576412746 -3.4696021356 -3.7550661915 -0.91570535806 2.2233622503 0.068244818507 -2.3811357011 
1.6798295627 -1.5310897188 -2.2141248163 4.3048637886 -1.1054651498 1.41508796 0.32773670302 0.49757887574 -0.55464112386 
0.31816205944 0.00068136695651 0.23265018235 -0.15674516123 -0.055136342803 1.0466737227 -0.52185352165 0.17905700246 1.5305585609 
-0.35287902361 -0.52397696984 -0.96454954636 -0.92412401085 -1.6575754779 -1.6535982255 -0.93451872126 -0.69200880401 -0.61413882074 
-2.51571693 -0.76048957555 -2.6011402968 -2.0396250568 -0.41051254971 -1.6407147303 -0.82454986623 -0.92664691733 0.93686927014 
2.2362965874 0.85384543372 3.4277569262 2.6194521648 3.1817275223 2.5458522098 0.20312691014 1.0473012054 -2.310625821 
-0.59427724231 4.2961802348 5.7713903134 1.2245618076 4.1883103964 3.8046093441 -0.44231698963 1.1114995024 0.18777262557 
0.51029620033 1.1285837658 3.8039053879 -1.5974014928 -1.3775394158 -2.1138799074 -0.32075779642 2.3967988711 -1.126914584 
-1.227567768 -1.7045297485 -1.2390211754 -0.18743398765 -1.3982521814 -1.053073318 -0.92616656495 -0.37134884657 -0.35391022559 
-0.11346247531 -0.56337943544 -2.4191153147 0.96292499185 -0.86010301002 8.7718376156 0.86463010061 -1.177721769 7.9779695218 
-1.5457096626 -2.1097230369 -2.2373899883 1.7579612645 -1.1591321551 -1.2193475872 -1.3787277665 -1.9171726298 -1.6571860993 
-1.2865189672 -4.0889920221 -2.2600274725 -1.2904167058 -1.4351823155 -1.1411722336 -0.51677203534 -0.42856636065 0.12757986355 
-0.12635889819 0.0058288198713 -0.0847833053 -0.097823878922 -0.24721909648 0.033413255818 -0.45173755664 -0.86011852941 -0.84865412112 
-1.9110144114 -2.1331265071 -1.7337361425 -2.0592956641 0.15694876604 -0.44480642289 -0.73142874918 -0.46838640295 -1.292890116 
-0.76129010234 -0.66538758903 -0.58262616648 -1.0018471577 -0.78990696123 -0.061018832911 -0.2620227693 -0.3822694505 0.048274970421 
-0.27600042565 -0.11269934241 -2.1614335994 -1.567300152 -1.3817872641 -1.2725186758 -2.0409617742 -1.1091811579 -1.7362815333 
-0.96920583869 -1.0327885909 -1.8185553292 -1.7727656575 -1.7940425972 0.037295639701 0.22319461434 0.2232074035 0.24796142192 
0.16391215074 0.76616021702 0.98398539135 0.58936682746 0.52314305817 1.0173749126 0.71193962998 0.80514298346 1.3605065269 
0.51572848897 0.23662153416 0.35223456827 -1.1959420454 0.17935364547 -0.65003759551 1.9570007 0.62165168608 1.3335129482 
-0.84482721017 1.0661260525 -0.93332228913 1.8098305809 0.88747028714 0.85051357681 -0.78929931615 1.2067892663 1.3297702492 
1.7042362568 0.86683006993 0.31904438443 0.14029432413 0.87771346679 0.024821085944 0.29434788549 -0.57894783748 -0.56060530792 
0.38985603007 -0.5674030584 0.73526420863 -0.2646343331 -0.86806121179 0.49373779963 1.2980591037 0.43336144963 0.72105110196 
0.92544342978 0.93433552601 0.99173890178 0.34041225508 0.3676113154 0.49399369517 0.73638162129 0.29321993188 1.0605450953 
0.73649581467 1.3760321467 0.9914087351 -0.29987016324 1.3628866 1.1056028919 3.410043766 0.30148896194 0.65076111389 
0.33059745823 0.9834925837 3.0397096704 -0.06365667977 2.623214373 1.9764042348 0.36602700515 2.5408424782 1.0647036395 
1.7334663998 0.68077420955 0.62192627482 0.69222699485 0.63626177609 0.037427917263 0.63750555929 0.15693340207 0.83062985231 
0.38771019207 -0.43477809747 -0.02964680912 0.68120637754 0.59049829052 0.27806361333 0.39741238544 4.2552942527 -0.27710770318 
-0.53256790894 0.33039102154 1.1823384949 -0.4607167587 -2.3340115286 -0.37123476664 -2.3007779333 1.3952322793 -0.55460779523 
-2.3340532143 0.050034151792 1.097752769 0.95413886026 0.84165517633 0.14735411212 2.2455063319 -0.34245655719 -0.37209628327 
0.56539639885 0.37868482414 1.4098628364 1.0699073536 -0.15401271855 0.62646568054 0.47236222039 0.72682580444 -0.59462159391 
0.30322280084 0.18331483944 0.34558188576 0.33160514092 1.1069370459 0.62488119194 0.83097066615 1.0925486672 0.25961681782 
0.81015257959 0.6105861587 0.50028088961 1.2958806449 0.64981508248 0.88742939757 0.021251832395 2.2727207716 0.69685868518 
1.2927563692 -1.7223057968 1.137484767 1.3938000126 1.1176653186 0.70125661303 0.25432482451 -0.10313014522 -0.038517257849 
1.0652469067 0.51420884047 -1.2570078253 -0.19575953754 0.6806495621 0.58632051375 0.59731664275 0.60723121342 0.60945299171 
0.24008976412 0.2934513414 0.41899030408 0.31178619538 0.27090199421 0.16610820091 0.18626137312 0.26887783159 0.33124298405 
0.57286987713 0.43635200321 0.17706939254 0.72080334967 0.87882500274 0.71569628789 0.62513844523 0.68495655229 0.73150171604 
0.62831815002 0.60198298477 0.8867672782 0.67625831656 0.81993083147 0.7495565812 0.51875280324 0.58956241387 0.63893326619 
-7.081567951 -6.5006946915 -9.7177758442 -9.7497835889 -7.4356166132 -7.4779075707 -5.8883367331 -4.9394296214 -7.1099366645 
-7.3551578676 -9.0424171756 -8.4120101322 -6.4728398355 -5.3916398065 -6.7704500515 -9.2104033448 -7.1065874526 -7.6550866088 
-7.2907632588 -7.3636101767 -9.5875930352 -9.1774366537 -9.0561059182 -9.129036593 -4.898757144 -8.9599251605 -7.5175557093 
-7.3892278048 -9.9622906221 -9.3435020661 -9.9540277699 -9.96484334 -8.6908820551 -8.7952724767 -8.3456839369 -8.0411086635 
-9.9886519379 -9.9235121923 -9.9601232303 -9.9542107399 -9.7409960699 -9.0186824948 -9.9991814165 -9.9573662229 -9.8504592882 
-9.871224439 -9.9552490455 -9.8535555508 -9.8335370559 -9.9163382487 -9.8467702002 -9.8550356558 -8.5269433394 -9.6709699245 
-8.062801663 -8.6154022914 -9.2756126578 -9.174293487 -9.5222040398 -9.931596345 -9.4476955573 -9.5993959006 -9.4423871583 
-7.8347426067 -9.9718370091 -9.153291761 -7.958122816 -8.4017552051 -9.7685379842 -8.7684740229 -8.6559055685 -9.944658469 
-9.9126219581 -9.9218382138 -8.9087546902 -9.9313424314 -9.023013629 -9.27801537 -9.9331659521 -8.8309229843 -9.7528310619 
-9.6670411664 -8.0639392349 -8.4126093503 -6.5340604879 -9.5837154387 -9.896808267 -9.3445950508 -9.8531113114 -8.0337332634 
-7.372301668 -7.6145755658 -8.4541628914 -6.5340387214 -7.7631540491 -7.7329145563 -9.2735205476 -9.7778220096 -9.3240696228 
-9.8701041613 -9.9350344285 -9.7991393712 -9.8906399223 -9.4821881366 -9.3977133343 -9.4424177031 -9.3692859527 -9.2710206566 
-9.9577438886 -9.8966907314 -9.9051553871 -9.8997256027 -9.9202192476 -9.876437881 -9.927412704 -9.8720150037 -9.8197370203 
-9.9460619885 -8.2924348784 -9.4829793595 -9.9358659596 -9.9117064375 -9.9567452336 -9.9424287551 -9.8709333836 -9.8556396579 
-9.7947872662 -9.8711454903 -8.9625196224 -8.7268215243 -8.7793137741 -9.1049001227 -7.9217195446 -7.912011595 -7.7624860948 
-7.3319461442 -9.0471222948 -8.508446757 -7.9202166686 -9.6122167808 -9.9462551875 -9.8788294523 -8.9704030194 -7.9003350099 
-9.726287097 -9.6734915939 -9.4771424037 -9.9319953194 -9.8429374568 -9.8479674297 -9.7838246919 -9.2022815798 -9.8015667799 
-9.3430155755 -9.7030044943 -9.6852000394 -6.9193966159 -9.6195730742 -9.5429480003 -9.8092716141 -9.8341372313 -9.6059669627 
-9.593393118 -9.5698758021 -7.1949530525 -9.7731561461 -9.6203626718 -8.8665555674 -9.8158294518 -9.6653306337 -8.8583578525 
-9.8925234447 -9.9671045161 -9.9580532409 -9.4912856744 -9.9933134506 -9.9440329664 -9.9856051971 -9.9937967005 -9.5180306185 
-9.7732612016 -9.7080875241 -9.9311425082 -9.9851300409 -9.9522948156 -9.9831122053 -9.9117982861 -9.9850596722 -9.9955230893 
-9.9930018562 -9.9649392966 -9.9879532264 -9.9794483968 -9.9908958113 -9.9943452368 -9.9526189674 -9.92448012 -9.9514553064 
-9.9462939466 -9.9484850366 -9.8921583797 -9.9272343799 -9.9914713049 -9.9073266682 -9.7521224612 -9.8559335491 -9.9510946464 
-9.9725337362 -9.9567657092 -9.9495606797 -9.9295927522 -9.8980297938 -9.9578208519 -9.9293643619 -9.9344750832 -9.9961030428 
-9.9603766033 -9.973488754 -9.9587279 -9.9692751526 -9.999427664 -9.9882056032 -9.9524812913 -9.9600173409 -9.9657430144 
-9.9669629248 -9.9998374605 -9.9874223977 -9.9837958611 -9.9832549985 -9.9991212125 -9.985565686 -9.9879218854 -9.9889701198 
-9.8154960163 -9.8686340829 -9.9291778424 -9.8169758833 -9.9250440345 -9.912502123 -9.8906785592 -9.8920233217 -9.9528729342 
-9.9296535274 -9.8872983155 -9.9313687032 -7.8120033467 -9.8187165307 -8.8478704404 -7.8579372853 -9.2341246748 -8.5765969438 
-9.3231783515 -9.5566685232 -9.1202313336 -7.6725708523 -9.9806711822 -9.0678673342 -9.1589225396 -9.7629809146 -9.8868234676 
-9.8560181408 -9.1127433696 -6.7868756022 -9.7653520865 -7.6325449669 -9.3524811005 -8.4970036136 -9.2999987867 -8.452477893 
-9.4420068901 -9.8512536739 -9.2659091057 -9.5564066463 -7.9231847964 -9.7474792116 -9.8075800784 -9.3099321115 -9.7332862536 
-9.9970489756 -9.4939804042 -9.66264967 -9.75145502 -9.7133638333 -9.9178235744 -9.6561028109 -9.5671819128 -9.9294423286 
-9.8912342626 -9.8654987482 -9.9464568431 -9.9439619956 -9.9738862751 -9.9277564586 -9.8902473879 -9.9802339975 -9.9810107856 
-9.9617009497 -9.9183438384 -9.8162897905 -9.6647764994 -9.9273181368 -9.8018052278 -9.9420675681 -9.7807631833 -9.7312763187 
-9.6721043191 -9.9180595241 -9.868640067 -9.6798895091 -9.6672405099 -8.6166312814 -9.6597849799 -8.6704600341 -9.8433785118 
-7.2337637616 -9.1728802007 -8.2684666166 -8.2083042251 -9.958661351 -9.3094853465 -8.9522377194 -4.8933864904 -9.2747555881 
-9.1293481881 -9.1351811699 -9.2383450281 -7.5366406143 -9.3050534624 -7.5542975302 -8.6721004528 -9.2305806265 -8.6477701657 
-6.5110563483 -8.7348069459 -9.6662357601 -9.8632749972 -9.7371201611 -9.4869878779 -9.661328578 -9.7318646982 -9.4388021298 
-9.9022442609 -9.938535534 -9.7805096614 -9.8141421734 -9.9760938779 -9.9681704566 -9.7923404154 -9.9948850976 -9.0866928441 
-9.9763301614 -9.3111418161 -9.8557251273 -9.716849696 -9.8776310035 -9.5448855887 -9.5881051468 -9.7509981491 -9.971132595 
-9.8798690993 -9.8793937549 -9.7740959544 -9.7659779106 -9.7455947421 -9.8391489884 -9.8160819809 -9.9171845069 -9.7994890216 
-9.8943791725 -9.8853475201 -9.947899764 -9.9845066907 -9.8832924485 -9.9892054789 -9.7782564325 -9.9595372621 -9.9270365324 
-9.9396269088 -9.8396027465 -9.9513287831 -9.9073984104 -9.6944872229 -9.9654070344 -9.8226681818 -9.8238171311 -9.7110348081 
-9.8337188057 -9.9737664098 -9.8204316584 -9.9890346757 -9.9984372376 -9.9985894085 -9.998935039 -9.9530383282 -9.9695375163 
-9.9544664889 -9.9575823756 -9.7942691167 -9.7032437477 -9.9894167035 -9.772135143 -9.9905926185 -9.6894840134 -9.6428626246 
-9.7868811722 -9.8262038831 -9.9119484198 -9.7966236487 -9.9803714397 -9.6757904249 -9.8167284027 -9.9684108823 -9.8318438303 
6.5451269923 8.4073960169 9.7687397914 9.7521965646 6.5889886024 9.7791522757 9.9966423022 9.6775491447 9.5398572885 
9.6133871074 9.5386274102 9.6527553267 9.5529581496 8.5418818443 8.4193369467 9.3977110302 7.2291181675 8.5416329304 
9.9219658643 7.7607746608 9.4784252815 9.9265355524 9.542189683 9.583995419 7.5849393257 9.9331328176 9.4627028839 
8.1605329144 9.7747411951 9.8854164327 9.8147829885 9.799374533 9.9690149616 9.3201981149 9.6546249713 9.8904198767 
9.7793192854 9.7261464864 9.9166207235 9.9053184632 9.8292375597 9.9058389119 9.970194456 9.8200679303 9.8343356611 
9.9288466926 9.7942120649 9.7968499113 9.9331423332 9.8336985579 9.7624980046 9.8746010315 9.9232364409 9.9793310741 
9.6902814527 9.9587577161 9.6935610562 9.6176639651 9.9741729063 9.973619357 9.9926773475 9.9097216066 9.9750975218 
9.9952729393 9.1944002178 9.3048472535 9.9813585261 9.7803119206 9.7499417043 9.692092424 9.7321292723 9.916652801 
9.9510077149 9.7855355371 9.9588767277 9.9076582392 9.9691306709 9.9610944578 9.9097828047 9.9566644458 9.8306908669 
9.9889839832 9.7753031601 8.9490521814 9.5209420972 8.9889560593 9.9218699991 8.8139240454 9.0023225598 9.5247539929 
8.405413755 8.4975423976 9.3640885516 9.6424117265 8.9133219693 8.9362108374 9.9934556346 9.7155995795 9.9958624337 
9.9954542087 9.975726695 9.9826761279 9.9899080004 9.7303135811 9.6878860043 9.6849976249 9.9903135063 9.8859915824 
9.9365375123 9.9520508088 9.9916342482 9.9507417919 9.9416205827 9.9515460651 9.9996423746 9.9435567889 9.9876245874 
9.8705607466 9.9408494871 9.9251989973 9.9904448141 9.9888996455 9.949748229 9.9884725463 9.8106641407 9.918269265 
9.8952862343 9.8438901511 9.3947037189 9.9304214047 8.9680610162 8.7301676275 9.9861751771 9.2393203641 9.822693427 
9.7660225664 9.9687868355 9.9598733765 9.3619172068 9.7496311247 9.7316475 9.9460921739 9.9199982897 9.9428920641 
9.8563011258 9.9710268171 9.9250067998 9.9267499245 9.8307717603 9.927785252 9.8954493587 9.9231564666 9.947403201 
9.9768653542 9.9863236128 9.9927974355 8.710902789 9.80973236 9.9754782107 9.8430575663 9.9423285853 9.9401921454 
9.7727150137 9.9942715796 9.2436334776 9.8388748401 9.99078157 9.9959447327 9.9399384782 9.4819203709 9.9828155574 
9.9759276295 9.9819964487 9.9740514812 9.9095654075 9.9112891124 9.8406814233 9.8356596951 9.9387881797 9.9573296357 
9.9634829256 9.9596045365 9.9725864149 9.9549371854 9.9439659528 9.9653641619 9.9430267635 9.9749855202 9.9621922992 