# vtk DataFile Version 5.1
vtk output
ASCII
DATASET POLYDATA
POINTS 1244 float
0.110502 0.0789742 0.141552 0.0808956 -0.100846 9.29043 -0.0635322 9.39466 -0.00979181 
-0.0820606 9.45879 9.56311 9.15217 0.0437776 0.100969 9.53595 -0.152068 9.53106 
9.36022 9.41656 -0.0975215 9.72679 9.70911 9.79225 -0.152635 -0.266164 1.01983 
-0.357445 -0.39855 1.87414 -0.434254 -0.454954 2.82512 -0.471427 -0.475505 3.86288 
-0.596681 -0.539658 4.93743 -0.612602 -0.525557 5.99016 -0.691534 -0.649659 6.96786 
-0.52796 -0.483207 7.83287 -0.426763 -0.5076 8.66021 -0.115389 0.927887 -0.170709 
-0.306259 1.83939 -0.309178 -0.251384 2.78862 -0.314801 -0.363212 3.80694 -0.384033 
-0.390436 4.95645 -0.423763 -0.438789 6.09763 -0.482031 -0.366879 7.10451 -0.366913 
-0.421221 7.84912 -0.43542 -0.375623 8.62731 -0.380563 -0.291247 9.48428 0.886863 
-0.318351 9.3619 1.92399 -0.331058 9.44402 2.82409 -0.279002 9.39444 3.8253 
-0.25635 9.37122 4.89307 -0.364171 9.48787 5.86667 -0.299467 9.36071 6.85304 
-0.565716 9.71583 7.76169 -0.550481 9.73586 8.79596 -0.132571 0.863778 9.35333 
-0.281394 1.97144 9.41135 -0.116486 2.87205 9.17426 -0.266082 3.81057 9.29833 
-0.228956 4.81466 9.18004 -0.349254 5.89458 9.39073 -0.273696 6.90207 9.44449 
-0.589725 7.7548 9.74688 -0.591173 8.78127 9.82468 9.49764 -0.28997 0.87692 
9.40211 -0.340777 1.91656 9.37896 -0.308605 2.94122 9.26991 -0.416577 3.93708 
9.41621 -0.450745 4.92211 9.34385 -0.305062 5.94152 9.60024 -0.367644 6.91393 
9.62986 -0.3824 7.82373 9.60978 -0.430522 8.75542 9.31237 0.927054 -0.239778 
9.54181 1.97535 -0.328464 9.29553 2.85729 -0.211448 9.37384 3.83963 -0.297935 
9.23442 4.87672 -0.216737 9.41615 5.95408 -0.34771 9.38851 6.91196 -0.322713 
9.46621 7.87593 -0.662252 9.64016 8.8083 -0.668688 9.69882 9.65751 0.739859 
9.58002 9.44888 1.71232 9.37224 9.23278 2.40442 9.16863 9.08394 3.38579 
9.4377 9.36757 4.48293 9.34741 9.38908 5.68299 9.55018 9.55808 6.9468 
9.82852 9.78524 7.8939 10.122 10.1547 8.94385 9.68607 0.771658 9.60957 
9.45969 1.86869 9.50182 9.39992 2.70186 9.19488 9.32559 3.69037 9.22432 
8.94542 4.66922 9.14367 9.05857 5.79056 9.18563 9.34317 6.64326 9.4854 
9.54115 7.82765 9.63818 9.90745 8.93875 9.88724 0.960688 -0.19273 -0.0934224 
1.89651 -0.436601 -0.19582 2.84464 -0.298038 -0.308932 3.82836 -0.552326 -0.331504 
4.9486 -0.479636 -0.362336 6.04197 -0.667217 -0.477752 6.96406 -0.503419 -0.55076 
7.8314 -0.636439 -0.392085 8.6913 -0.504102 -0.325792 0.862235 -0.317588 9.31061 
1.85451 -0.522162 9.48854 2.91436 -0.266625 9.27798 3.85643 -0.540027 9.3025 
4.93431 -0.473399 9.17041 5.98143 -0.592594 9.33585 6.91224 -0.361275 9.39117 
7.84942 -0.582241 9.55867 8.82447 -0.608008 9.55102 0.891104 9.49058 -0.294922 
1.89369 9.48467 -0.215156 2.82866 9.53024 -0.355642 3.82019 9.3889 -0.168702 
4.8798 9.36433 -0.219714 5.90381 9.51237 -0.2802 6.82866 9.51956 -0.357891 
7.76684 9.6923 -0.367597 8.71295 9.71042 -0.416484 0.776509 9.7822 9.75294 
1.74465 9.53452 9.43897 2.76103 9.54642 9.53298 3.47211 9.28544 9.14613 
4.60553 9.48299 9.0575 5.73338 9.32821 9.02053 6.67793 9.5408 9.43865 
7.82038 9.78755 9.77313 8.93263 9.82065 9.76438 -1.03944 0.235813 4.95263 
-0.648125 0.212625 1.69005 -1.27644 5.57751 1.86644 -1.34926 8.03862 3.35164 
-0.679013 8.15119 0.117242 -1.30535 5.56435 7.89265 -0.718575 8.22053 9.2524 
-1.593 8.08599 6.44062 -0.840839 0.0612754 8.0173 -0.616622 2.90059 9.097 
-0.592895 2.84296 0.122507 -1.63521 5.61106 4.97166 -1.41089 3.02815 3.45478 
-1.57188 3.02658 6.44928 -0.290138 0.317502 8.89687 -1.01662 0.0618458 6.49075 
-0.906272 0.0723311 3.32711 -0.236495 0.395927 0.489077 -1.09561 4.33015 8.45821 
-0.628417 5.56022 8.96836 -1.14142 6.85368 8.75117 -1.64557 6.76173 7.19607 
-1.47263 8.04521 7.95285 -0.865522 9.18044 8.64528 -0.786365 9.17751 7.32551 
-0.792198 9.03906 5.59806 -1.0103 4.35523 1.06673 -0.749331 5.5696 0.333727 
-1.48647 6.8014 2.65957 -1.16514 6.8649 0.921088 -1.36145 8.08719 1.81619 
-0.872703 9.11079 4.20346 -0.94015 9.32285 2.55541 -0.605589 8.90745 0.94161 
-1.70768 8.0624 4.87933 -1.71224 6.7914 4.20315 -1.50778 5.59203 3.40232 
-1.6048 6.79303 5.71752 -1.66314 5.55153 6.48599 -1.32959 4.33257 2.63958 
-1.18325 3.01429 1.87942 -0.883992 1.6465 1.066 -1.24499 1.64489 2.67388 
-1.37407 1.66228 4.21609 -1.47035 4.30731 7.1874 -1.38773 3.00441 7.93156 
-1.46485 1.64244 5.73872 -1.50704 1.55284 7.15703 -0.975103 1.55855 8.42099 
-1.50126 2.97647 4.98021 -1.55767 4.28014 5.76529 -1.47965 4.29686 4.18302 
-0.684946 0.305577 8.483 -1.06676 -0.00718697 7.34689 -1.01106 0.102921 5.71732 
-0.92131 0.0932587 4.18388 -0.785027 0.154022 2.47297 -0.541221 0.453055 1.14074 
-0.831667 3.59832 8.87316 -0.638046 4.31921 8.9931 -0.775718 4.93903 8.72939 
-1.19882 4.95247 8.19221 -1.09363 5.57671 8.612 -1.35899 6.22015 8.30988 
-1.51757 6.14192 7.56815 -1.57243 6.77138 8.01042 -1.10158 7.50966 9.2309 
-1.30922 7.46443 8.38271 -1.58889 8.17932 8.86125 -1.61816 7.39142 7.59667 
-1.64564 7.42091 6.80419 -1.55859 8.09807 7.21996 -0.923837 8.71746 9.11481 
-0.662774 9.16749 9.36073 -1.10288 8.60783 6.87968 -1.44015 8.77074 6.13829 
-0.786306 9.13109 6.42354 -0.937646 9.20317 8.14194 -1.40621 8.80773 7.60953 
-1.21906 8.68707 8.40558 -0.643034 6.87931 9.25891 -0.886173 6.22665 8.89034 
-0.824185 3.67242 0.567713 -0.702281 4.29917 0.386407 -1.12067 4.97752 1.51059 
-0.949773 4.95963 0.683779 -1.03226 5.61408 1.08416 -1.36773 6.18506 2.24656 
-1.30928 6.21161 1.41633 -1.41071 6.81412 1.81902 -1.58775 7.44662 3.00095 
-1.43727 7.41538 2.2986 -1.47117 8.12862 2.60401 -1.28701 7.44016 1.37007 
-1.00066 7.53892 0.444994 -1.08134 8.05928 0.943582 -1.18988 8.65794 3.68108 
-1.26713 8.72321 2.86018 -0.849316 9.02971 3.27841 -0.831582 8.62598 0.419162 
-0.292258 8.96218 0.329725 -0.751282 9.21016 1.63099 -1.19131 8.68807 1.3039 
-1.03188 8.69938 2.14767 -0.807159 6.95167 0.0283449 -0.933633 6.2336 0.58719 
-0.891243 8.99938 4.87838 -1.15469 8.51807 4.5197 -1.45552 8.00849 4.15326 
-1.33799 8.59991 5.35238 -1.38693 7.97137 5.68085 -1.69845 7.45161 3.78966 
-1.54019 6.81236 3.44063 -1.6038 6.16396 3.02664 -1.43533 5.56082 2.62641 
-1.61975 6.20491 3.81885 -1.63288 6.19051 4.55533 -1.58857 5.6098 4.17913 
-1.79268 7.45144 6.06315 -1.87583 6.77072 6.42404 -1.72085 6.18013 5.35336 
-1.81275 6.14099 6.07128 -1.63058 5.59527 5.75194 -1.59985 6.15614 6.79535 
-1.69985 5.50347 7.20273 -1.80613 6.7569 4.93781 -1.7237 7.39626 5.34598 
-1.5525 7.38496 4.58097 -1.29101 4.97255 2.25694 -1.18563 4.33204 1.89884 
-1.11538 3.70145 1.44476 -0.979206 2.95039 1.02337 -1.25565 3.69128 2.27467 
-1.3797 3.68261 3.02734 -1.29635 3.03768 2.69979 -0.796999 2.21281 0.55161 
-0.525767 1.48542 0.329052 -0.56585 1.00493 0.65403 -0.874261 0.995132 1.5027 
-1.3768 2.34973 3.07804 -1.41007 2.36904 3.86324 -1.34993 1.6608 3.4623 
-1.04281 0.91468 2.2245 -1.13882 0.893071 3.02932 -1.22289 0.888201 3.81345 
-1.23873 0.929341 4.57576 -1.13132 1.64692 1.86932 -1.25879 2.36718 2.30661 
-1.09403 2.30905 1.43185 -1.56828 4.95184 7.54944 -1.40898 4.29375 7.84859 
-1.55389 3.69758 6.86928 -1.36412 3.63916 7.48372 -1.64973 3.02802 7.15574 
-1.27126 3.65863 8.26606 -0.939722 2.95837 8.52947 -1.53002 2.33371 6.09291 
-1.48924 2.32706 6.75155 -1.46812 1.62374 6.46289 -1.34947 0.913997 5.37532 
-1.31407 0.886961 6.1085 -1.34051 0.844437 6.79917 -1.15251 0.791743 7.55397 
-0.909766 2.16902 8.95124 -0.574966 1.49068 9.04622 -1.16493 0.810626 8.20796 
-0.998222 0.876542 9.02656 -1.40818 1.55032 7.86517 -1.25219 2.28756 8.24365 
-1.41201 2.35796 7.5038 -1.40412 1.64632 4.97399 -1.53744 2.33808 5.36167 
-1.53532 2.9998 5.73585 -1.4917 2.32694 4.62378 -1.45812 2.98635 4.21705 
-1.54345 3.64919 6.12418 -1.52796 4.31476 6.53982 -1.56994 4.9287 6.88524 
-1.59187 4.92519 6.13526 -1.5775 4.95039 5.35586 -1.44012 3.64239 3.80774 
-1.40917 4.30633 3.3966 -1.5415 4.95523 4.56087 -1.48068 4.96689 3.78071 
-1.39116 4.96382 2.9974 -1.52723 4.28466 4.96301 -1.48924 3.62274 4.58366 
-1.52753 3.61924 5.38165 9.3888 0.458472 4.95877 9.58671 0.282408 1.78862 
9.24072 5.61074 1.93759 9.43347 7.88312 3.34109 9.64449 8.1206 0.111552 
9.07849 5.54773 7.64868 9.73857 8.25783 9.26597 9.36707 7.90231 6.55719 
9.77563 0.270431 7.94267 9.40288 2.86525 8.9279 9.41192 2.94626 0.38196 
8.95412 5.59882 4.96932 9.27452 2.98583 3.46482 9.18226 2.95758 6.45852 
9.8876 0.201969 9.15521 9.56311 0.322136 6.39587 9.53704 0.306637 3.45784 
9.57116 0.429947 0.417788 9.16174 4.27158 8.24591 9.2618 5.51799 8.78564 
9.19917 6.80246 8.30698 9.21552 6.83527 7.12243 9.58109 7.97282 7.87288 
9.88507 9.22101 8.64967 9.78295 9.31784 7.40266 9.54754 9.04716 5.83054 
9.33121 4.31718 1.2449 9.42762 5.61645 0.46581 9.26098 6.797 2.65258 
9.44304 6.83613 1.15142 9.59372 7.87724 1.89345 9.47524 8.92137 4.31122 
9.76289 8.8205 2.59554 9.50383 8.95702 0.85263 9.26006 7.7963 4.97102 
9.03359 6.81793 4.25624 9.03497 5.61166 3.44093 8.96624 6.75379 5.74123 
9.00939 5.56173 6.41732 9.20365 4.31266 2.69551 9.35881 3.04001 1.99843 
9.48906 1.73148 1.17936 9.42221 1.7514 2.74499 9.38451 1.72488 4.25896 
9.05982 4.32006 7.09067 9.37496 2.93054 7.73756 9.38136 1.72047 5.74374 
9.57029 1.73658 7.13082 9.63088 1.63305 8.46661 9.20603 2.96982 4.99316 
9.04977 4.29245 5.7419 9.08975 4.29455 4.2187 9.72762 0.327715 8.54655 
9.65057 0.297792 7.22803 9.47556 0.3206 5.65418 9.47607 0.324814 4.23817 
9.47313 0.287976 2.59779 9.45919 0.541431 1.13873 9.36692 3.51187 8.76492 
9.15633 4.20401 8.83773 9.32971 4.96524 8.71662 9.12308 4.97277 8.0418 
9.08459 5.63142 8.15821 9.28766 6.12883 8.0383 9.10522 6.20481 7.45501 
9.27878 6.83693 7.75098 9.6101 7.60093 8.93256 9.42196 7.44922 8.19618 
9.64268 8.00159 8.53032 9.4063 7.45103 7.4689 9.2678 7.4331 6.79697 
9.5107 8.00096 7.19217 9.81067 8.70554 9.00145 9.84873 9.34518 9.28091 
9.64515 8.55313 6.83107 9.51491 8.4558 6.10834 9.76385 9.27884 6.62323 
9.85703 9.4381 8.16311 9.69969 8.64709 7.50749 9.79835 8.64955 8.21044 
9.34741 7.0242 9.15562 9.11121 6.43319 8.79309 9.4242 3.66928 0.748751 
[...]
CELL_DATA 2484
SCALARS scalars double
LOOKUP_TABLE default
-5.1869098085 -0.60877165437 -1.9624880147 -0.78456869424 -5.5094139417 -4.6266674395 -4.8344109026 -5.459281676 -5.3717293312 
-5.9633787146 -4.9478582775 -6.2086104968 -6.4497553968 -5.6340558402 -5.3923714851 -4.7914612551 -3.9581211531 -4.305744412 
-3.8152938795 -4.0176791164 -4.6715572216 -5.6954611975 -4.9432172158 0.68154970548 -1.543163641 0.95065805052 0.62812565014 
0.31341691665 1.3413194082 -1.5731276676 -0.28540990515 -2.6983378185 1.0793487817 1.1859878035 -1.3457067251 1.9861419805 
-2.2146836553 -0.57678042245 -1.4919456774 -2.4184034347 -1.1853451702 1.938262255 -3.2022387518 -4.8523684572 0.20952264123 
1.4974605785 1.017904626 1.0421354892 0.083040987836 -0.13662057031 0.61891861814 1.6387458875 -2.4060213792 3.7482277905 
-0.19192552164 2.9794466371 6.5173642727 4.241403127 6.1723454132 3.7941114644 5.008799598 8.8885733995 7.0780501295 
6.1962658691 7.1117781132 8.4070816236 9.1889716232 5.874920364 6.725161663 4.5773288577 4.9068134327 6.7448086147 
1.4199844948 4.1422386418 4.3910792562 4.6856264769 0.81229198782 7.0531074818 1.9621972755 5.2934406588 8.2483226703 
5.63384957 3.8220366951 -4.3170672698 -4.3167134598 -1.7218726464 -2.5219360101 -1.4232265153 -0.23087127535 -2.0810078883 
-2.0741361754 -1.215534433 -1.317529468 -0.14077977482 -3.7624015535 -1.2751363632 0.56326136472 -0.35115668116 0.51130424817 
-0.29759917714 -0.68955634573 1.0084123692 0.0041735047977 -0.58789025347 -1.3058465805 0.34539607345 -1.6043516163 -0.15772829893 
-1.0328446757 -1.2928243107 0.13418639815 -1.1760240105 -0.43639477013 2.7003811961 0.1226294774 0.44009267053 0.26251004584 
1.0282137295 2.4812758062 1.2221209026 -0.03366402715 0.014846763068 0.27271425403 0.81816827521 1.9393729967 6.2843226687 
5.7517886321 7.3865222166 9.0890007144 8.5510281078 8.0834671165 8.7557911798 8.1505915293 0.35745928941 4.1124971547 
7.8416856491 4.1975011704 4.1302671382 2.8194619644 9.1659718259 9.6032672176 8.4511658685 9.8360719697 -0.098493801784 
0.087764740197 0.55900394828 3.3130988289 5.2849992161 2.468155788 4.2189867518 3.9660774943 2.8430409569 7.2395546393 
5.8383635105 -0.38986187096 0.93073193527 -1.1657963734 -1.514423531 -1.1329296555 -1.2724836438 -2.5964513595 -1.8636303781 
-0.96282085357 -1.3458898541 1.3078511221 0.84165188297 1.8117427276 8.624668372 4.7652655039 7.2991672125 8.5459788109 
3.0401623412 6.3417332083 4.4455523754 8.0625542822 2.6945120841 0.92860849833 0.088427914712 6.7721837962 7.6819475253 
4.5067198082 5.9283903166 4.3483645785 -1.2032500764 -1.1859817731 -1.6748787936 0.095223098731 -0.18772298854 -2.1721666544 
-0.73574756935 -1.4267221732 -1.1248116538 -0.38114779366 -0.63797550472 -1.7252528146 -0.094400269969 1.4150288749 1.1396086012 
1.8475183925 -0.7682919099 1.6846199034 2.218843574 2.4747242124 -1.5066881227 -2.8464155808 -2.4110569902 -1.4196306327 
1.2543187569 -0.3809446584 2.1568598825 -0.44332514728 -2.5135398867 1.0479087088 -2.4868327936 -0.75205638485 0.35765448556 
-2.0631229067 -2.2227067776 -2.3705912746 4.4260424171 2.8993032647 5.5341825842 1.3990898474 -0.74262136975 4.5220320815 
2.8114952494 -1.2720195521 3.2036667932 -0.35798221355 2.5843531323 -1.1977834898 -0.25965965904 -0.54789835503 -0.35850020137 
-0.29108275495 -0.47847290191 -0.48284205699 0.048114523208 -0.21078777074 -0.26651209712 -0.5120605143 -0.44627834825 -0.080947820783 
-0.046187282621 0.38655003778 0.10077401866 0.41715517687 -2.1523022946 -0.43489383877 -2.0272476426 -2.3767665391 -3.6307197893 
-3.3275117298 -3.271645614 -1.9204999881 -2.4737716908 -0.27056962115 -3.3812095901 -2.3204228875 -1.1035875233 -0.66668771741 
-0.61614783435 -1.9481116495 -3.6951150783 -3.2332289335 -3.5362313798 -1.864918355 -3.5780491395 -3.1808669224 -3.5481585789 
-3.0568502884 -1.7595881832 -1.9664192003 -2.0788260412 -3.2346853774 -1.8453226311 -2.0691288334 -2.3291215155 -0.96412724597 
0.33367619942 0.25006129782 0.32855491822 -1.3123191624 0.25264841321 0.27062042074 -0.31806912787 -0.071551432942 -1.3917139985 
-0.8979915041 -0.64043171513 0.92578939097 -1.9702906108 0.46729535941 0.16649501538 -0.21965790724 0.94898211876 2.5706549896 
2.6245446342 0.4268047545 -1.5707926786 -1.1272221114 -1.6841834535 1.1725341266 1.0332284539 -1.175963914 -1.3434855233 
-0.91227269557 -0.90385639898 -0.067256250377 -0.55026673263 -1.7623630036 -3.9736139451 -3.4936400969 -3.7371614575 -3.22008935 
-3.5297004524 -1.8504910952 -1.6209816924 -3.6219386573 -1.9238455134 -2.0023401696 -1.8187913927 2.7480570217 -3.3239817315 
-1.293866128 -1.9910034086 1.9325015165 -4.4815201037 -7.2762912671 -6.1341498183 -5.5923748902 4.7702911891 -3.9566130221 
-2.1536024565 2.0695218203 0.25247235623 -3.6337111085 -3.1609939611 -2.4300838239 2.3489337841 1.1223960076 2.0981245575 
0.74564856691 -1.7041398095 -1.6242869167 -2.813709521 -0.96641242407 0.57166087253 -1.4790877858 0.93252493406 -3.4089175393 
-1.1729125971 -2.0180917105 -1.4895294239 -0.98676832626 -0.34660437736 0.2916011074 -0.025225290785 -1.0619704255 0.16159839577 
-0.40917896639 -0.15722291988 0.19417988779 -1.4888744411 -1.4574983065 -1.5707396742 0.37053228862 0.89335362324 -0.0069917987996 
0.33351217592 -1.5452970914 0.99356290264 -1.8691570184 -2.2585981515 -0.41629161323 -0.85650610602 -0.84590432137 -0.69413436992 
-1.2934101894 -0.76698178476 -1.1642893421 -0.84709319083 -0.030012158238 -0.089224976896 0.14610183939 -0.013684429536 -0.48569596988 
-1.0535936629 -1.0375428175 -1.1721923697 -0.20542746099 -1.2725105049 -1.0937108167 -1.5579797782 -1.108545886 -0.36984996116 
-0.55434085935 -0.41588367908 -1.1323632684 -0.58202916007 -0.52838779652 -0.48516106505 -0.23709073915 -0.11592266409 -0.16194552814 
-0.12232813285 -0.3392710473 -0.1295451817 0.18505654138 0.0030554766725 -0.10861922832 -0.23480702821 -0.22185759117 -0.29766659783 
-2.1958914638 -5.2323541054 -1.2850233854 -2.2466009638 -1.8381123593 -0.25522322955 -1.4462203306 -2.5405486167 -1.6396722309 
-0.59670750737 0.25279249844 -2.9751544708 -3.0380924197 -1.9392031024 -1.408087227 -2.6901809282 -0.027565635955 -4.0361173766 
-3.5231270532 0.94399186636 -2.5558716352 -2.0754765323 0.34641301203 2.9788086838 0.73214968146 2.8683489443 0.70989387687 
2.9367595428 -0.32587134858 1.4821265248 0.62228452553 1.0683469813 -2.2457909391 3.6665101606 0.071615058477 -0.72834789364 
-1.3006605256 0.7149343819 -2.2099995823 -1.1398677266 -3.4633014766 -1.5487799225 -3.3134355248 -2.6480624571 -1.894517365 
-2.3837574137 -2.8590403118 -2.7333119795 -3.0273054769 -2.4464001042 -3.0558841226 -2.1274026614 -1.9130125415 -0.91947789351 
-3.3353280518 -0.13208968087 -1.6990049162 -2.7670352107 2.3530766451 -3.4655576679 -1.6581462696 -1.5536462216 -2.0064988252 
2.5685026195 3.6031631858 7.3209843907 6.434381391 -1.0226365901 -1.3238752223 -2.0012404202 0.058184390983 -3.3055391619 
-2.2945238638 -2.6184283048 -1.4622782054 -2.6918998017 -1.9333471751 -2.3297134968 -2.4167977329 -0.79415865462 -1.3436672936 
-0.81742931359 -2.764877832 -4.28635354 -1.4364498786 0.44361625334 -3.6731069129 1.5946638632 -2.886239703 -1.0529975254 
1.4820659307 -2.2667815912 -3.2792213296 -2.2650690295 -3.41269439 -0.93760771995 1.210881709 1.376631405 0.92401982677 
0.43673511278 -0.21158971349 -0.82077291821 -0.51921243543 -1.7595696989 0.69851229869 -1.7040720887 0.062828372044 0.06843065256 
-0.83931331204 -0.83703909406 -0.86422263181 -0.77943317319 -1.818912571 -2.1506122067 -3.3397723392 -2.9887388004 -1.9904314301 
-0.79117373921 -0.070108199886 0.14356075543 -2.5679757347 -2.356853959 -1.3612621567 -1.8974844592 -0.21292427053 -2.6345572505 
-2.2157351189 -1.3756361121 1.8671729725 7.1124212993 9.135323208 9.1553265244 0.95612147917 -1.268836262 7.0849469447 
-2.298233284 -2.8301032835 -1.9163831991 7.9284558626 0.41823106161 0.87334602673 5.1276011745 7.2164041313 -2.6166275407 
-4.3008048784 -3.792988368 -5.7207433946 1.923231443 -0.59019099811 0.76539965482 -0.43958484447 -4.4961586977 3.9944464144 
2.0833843195 -1.3704938059 -0.71571077892 -1.5435015053 -1.9398492083 -1.3587840425 0.32558736603 -0.70994379794 -0.29834066228 
0.7115002675 -1.7806819016 0.33612370562 -1.8197355478 -1.687521455 -0.6403763476 -1.7472588177 5.2186715853 0.75088312233 
0.30163427507 -2.2653322794 -1.3727594401 -1.2935696264 -2.5491935518 -3.6684217405 -3.9430153612 -2.3091716764 -1.9164433918 
-1.4307001703 -1.5783664435 -2.4529500859 -3.2239339896 -2.1416256448 -2.9770728219 -1.321475447 -0.85302093201 -0.02542722488 
-0.34641280165 -0.52056742825 -0.25822306606 0.033918928975 -0.028658003633 -0.51637817987 -0.29216626901 -1.1343942257 -0.080577948753 
-2.1371229513 -3.6517873703 -1.8114493351 -2.8451311918 -0.19098141501 0.45262622624 -0.12732164174 -0.15559419105 -2.0121815712 
-0.74210734033 -0.69033292793 -0.92341626033 -0.26198113597 -1.2413056479 -0.64953099397 -0.92705745369 0.087671493006 -1.6708463116 
-1.2515474022 -1.975921816 -3.3998445865 -0.84966021574 -2.7274664693 -0.70760010698 -1.8121136904 -3.3887493969 -3.1797910874 
-2.8844379414 -3.1737287958 -1.0089797732 -1.5859627473 -0.73539221585 -0.21694530677 0.41812416076 0.97680908558 0.72666731534 
0.65048420351 -0.14562022735 0.78651608105 0.62869470418 0.8902383005 0.75503771729 0.92289884936 0.80676085835 0.75460338888 
0.79228760802 0.54033642916 0.63894556108 2.8968813802 0.5137669293 1.0514067588 0.29483170362 0.89233449187 -1.0407480931 
0.46484997073 -1.6703596556 1.4969398921 -2.1958441934 1.0011340142 1.0975804217 -0.46021672162 0.93091165063 1.1221480744 
0.98519072599 1.0735157778 -0.15846319934 0.48153056503 -0.44235988912 0.62179991103 1.071269354 0.1209743613 0.67957433404 
1.1012422101 0.4938942511 0.96676722969 0.77708939867 0.91232168267 1.0906560502 0.54371309461 0.78160546942 0.8255281645 
0.93105025386 0.83852057227 0.92029260574 0.50712899291 0.89793366441 0.80701943981 0.60361185085 0.88012899063 0.41768270587 
0.82148651025 0.68852463979 0.68768000373 -0.0043069465849 0.52699000543 0.54892609111 0.95357897453 1.9494459478 1.5884031568 
1.4498791073 2.640606934 0.52107243719 0.45536737596 0.40224116902 1.5081168732 2.6580657444 1.0700334092 1.2897438851 
2.4056337747 1.7414065718 1.4360775458 0.9810838822 1.2394065972 0.082552783917 0.65738868438 0.30842494242 0.68347775614 
0.72142104011 0.059498155448 0.15292108307 0.71851210703 0.96614101957 1.3720769041 1.7844287502 0.97192895013 0.15849487771 
2.2277998304 2.398223298 1.9294669131 -0.011648218718 0.73142281455 -0.44903097432 2.3721543953 0.8317926054 0.534678049 
-1.7855205251 -0.42518444263 2.3821973366 1.6562685812 2.0641038308 0.34911279454 3.9684814257 2.3884943682 3.0692346002 
2.1494804543 2.5972795624 2.8997199531 3.0721683798 1.9955179803 1.5225787108 1.176479424 1.1785853459 -0.59655148087 
1.0905375965 0.81005703086 1.1274615825 1.6061835456 1.4037336284 1.2072074946 1.23133371 1.1717231294 1.250097224 
1.0309765818 1.1499239628 1.3448772957 1.1573427014 1.4649536004 1.1425829481 1.5268953842 0.32735739419 0.61433432292 
0.60738656664 0.25109455261 0.99634234575 -0.57155613954 0.29170073306 1.0957471802 -0.31432876947 0.67506255739 0.53448257177 
-0.62828203413 1.2272801926 1.1343356173 1.0405120386 0.99282727917 1.0491550532 0.94451485176 1.0527918999 1.0482257313 
0.44406323234 0.20325093827 0.2484488834 0.78059734809 0.55942366705 -0.34005121647 -0.017910452237 0.73357900802 0.63719351527 
1.2163982971 0.8637907002 0.70517224854 0.98860486382 0.91013547069 0.83748403812 1.1353388893 1.1008099245 1.1598840243 
1.1199609949 0.7226654705 1.4080948952 1.6081083588 1.5898140526 1.1702032321 0.88273648647 1.1028508678 1.1006720665 
-3.5425832268 -6.4459036085 -4.3597779091 -4.366879666 -4.0849271087 -5.7903505263 -5.331083545 -3.8050766418 -4.7567061442 
-5.1430111337 -6.8656188289 -3.6489541792 -2.8059086949 -3.9388421851 -5.6614774198 -1.9994298716 -7.095077982 -0.8012805579 
-1.3001441509 -6.5033875913 -3.1395916176 -4.421238263 -6.8058052638 -5.4567658344 -5.0866525878 -8.7853609748 -7.0186669817 
-7.155498482 -7.5776345695 -8.9487700765 -8.2933992912 -7.4171545688 -8.7942455377 -6.3243660571 -6.5778296064 -6.669689652 
-9.2961732359 -8.210155519 -9.9772991641 -9.2267313423 -8.2602569205 -8.4159614999 -8.5836337056 -8.3532674749 -9.8762986779 
-9.8686919256 -9.8438912959 -9.879653838 -9.9474137851 -9.9530963739 -8.1009118287 -9.8971662325 -5.6546575195 -6.5768738346 
-7.7854787443 -4.9383944058 -7.5149297164 -8.8472938192 -7.5982614294 -9.8797651258 -9.1309262496 -9.0749236162 -9.0560966199 
-7.7322580672 -8.4689324205 -8.7404277294 -8.7981752911 -8.2245792389 -9.536840001 -9.0886579707 -7.7177434037 -9.7593952478 
-9.3031387907 -9.2951894234 -8.3522515255 -8.8165569957 -8.0143024891 -9.3745825356 -9.4454915035 -8.1558277706 -9.3691986925 
-9.3963159863 -8.2614070923 -8.2431391201 -3.611020941 -9.0642946815 -8.6012472978 -8.8094727676 -8.9010324377 -6.8107836792 
-7.2308436055 -7.0409634894 -8.3755798311 -3.3146726289 -7.5742077117 -8.3814399213 -9.3036695741 -9.2251030181 -9.4463558811 
-9.5606475906 -9.9214473574 -9.4400390576 -9.6433065459 -8.9990719966 -9.0180150032 -9.0122089748 -9.3325227545 -9.4368024312 
-9.9132176763 -9.9059008731 -9.7577708975 -9.9153817839 -9.9313797312 -9.9123337715 -9.855630094 -9.9243422849 -9.6723378597 
-9.5594065544 -9.0540068324 -9.5452453639 -9.8664591044 -9.7627918535 -9.8960288334 -9.9291629677 -9.7923616322 -9.6162254773 
-8.9310678909 -9.3230144411 -8.1500593098 -8.4841484296 -8.1283002715 -8.0370330875 -8.36699842 -7.6608368876 -8.2575206139 
-7.9102975287 -8.5593711727 -8.606544513 -7.6636462118 -8.2983152332 -8.7055025867 -8.3961554641 -8.6545243433 -9.2645636932 
-9.7342479471 -9.2766674566 -9.0214511627 -9.717156078 -9.9237203028 -9.6097039853 -9.8666371094 -9.4280881307 -8.3764183602 
-9.3395996598 -9.2786288403 -8.6051603939 -7.179445333 -9.3347196441 -9.5257326171 -9.4365801291 -9.9199961923 -9.5054443555 
-9.2962009756 -9.3426820444 -7.1085971319 -8.4796963652 -8.7141506624 -8.6707487201 -9.5862946333 -8.5291053615 -8.6691321244 
-9.6185385006 -9.7531647827 -9.6178105492 -9.1662910163 -9.7263336797 -9.888881078 -9.7255647696 -9.7867369921 -9.4608398014 
-9.5603208849 -9.5509193983 -9.946285582 -9.9479371306 -9.9728244187 -9.944114514 -9.9241453549 -9.8890380666 -9.9757578087 
-9.9233778375 -9.9722328776 -9.9587397707 -9.9692834597 -9.9776518434 -9.9750210027 -9.9822234035 -9.9714823213 -9.9761737118 
-9.8006515734 -9.9755608625 -9.9864625474 -9.9983027575 -9.9788125584 -9.980518466 -9.9502144691 -9.9783262739 -9.9957764411 
-9.8429706571 -9.7485529516 -9.9498557982 -9.9611710064 -9.9882695844 -9.9873208931 -9.9954215474 -9.979357352 -9.9703340738 
-9.9632955417 -9.9801806229 -9.9434354028 -9.7369522362 -9.8093983344 -9.7554573234 -9.9660020048 -9.954267511 -9.9457128545 
-9.9578805922 -9.8073825373 -9.9558486464 -9.9703412754 -9.9263710049 -9.831332367 -9.8009561241 -9.8025213715 -9.7914564115 
-9.5373308503 -9.3153639347 -9.5224693333 -9.5078002612 -9.8859371332 -9.830466926 -9.9852055791 -9.8269842418 -9.7145696499 
-9.7920224992 -9.7823868597 -9.8032154487 -8.4275556586 -8.9781017045 -8.8812546184 -8.9682903626 -8.7626428616 -8.1049897909 
-9.3268255419 -9.0662503018 -8.9760631089 -8.7391090534 -9.8524222252 -7.9200027435 -8.6881183969 -9.0957042604 -9.4558245479 
-9.0551902762 -8.0340663668 -6.7773707376 -8.6659284184 -6.5445785584 -7.7925507094 -8.4526786841 -8.8552073497 -8.6748028805 
-9.054849815 -8.838885179 -8.1441087535 -9.4843953628 -8.9153822455 -9.2712126697 -8.4428292997 -8.7664765656 -9.600388392 
-9.7893235605 -9.9040915743 -9.5988752643 -9.3822562916 -9.4907574759 -9.2734144559 -9.34101947 -9.9402985755 -9.7373921472 
-9.5584786487 -9.8738423794 -9.928303453 -9.6528147596 -9.262978775 -9.9249663957 -9.9317476276 -9.9602740507 -9.5733099773 
-9.9364357088 -8.0973663436 -9.7271943326 -6.7420485977 -8.1917129848 -9.6477857237 -8.7887888165 -9.34899663 -9.3320919998 
-9.7362765203 -9.2865844413 -9.9399591724 -9.6007257247 -9.0360923248 -7.5752879037 -6.118364225 -7.2576990154 -8.0982348108 
-7.4368271654 -5.2359283705 -5.7755578432 -6.1903689014 -8.5773941394 -8.8192834354 -8.4029635696 -5.0672625185 -8.0268634769 
-6.6511808595 -6.2736522998 -7.4992699079 -8.5409157286 -7.4642379611 -8.2659465299 -8.8940726131 -7.616956174 -6.5778095041 
-6.8721110629 -8.4976402571 -9.6317372417 -9.7192506027 -8.6823500227 -8.9549712636 -6.3965065874 -9.2770843268 -8.7601027506 
-9.5051729936 -9.2009395716 -9.9627015953 -9.7757633227 -9.2081675557 -9.0170748872 -9.6850795578 -8.9927592877 -8.2359334725 
-8.900248791 -7.5983259344 -8.5975424192 -9.3143866019 -9.8940824748 -9.990765085 -9.8717294935 -9.9864590782 -9.9567131818 
-9.9632905004 -9.9871295927 -9.9797805909 -9.8755278937 -9.738194685 -9.743344181 -9.9735807797 -9.9410867523 -9.9845664258 
-9.981416678 -9.8845296682 -9.9045297294 -9.8431849562 -9.9330857562 -9.8933881556 -9.9438517729 -9.9793658529 -9.9399926511 
-9.9535235527 -9.9922914971 -9.9506129493 -9.9442067668 -9.9483643744 -9.8482496699 -9.9037726882 -9.8491346759 -9.9319957116 
-9.9260295175 -9.930596514 -9.9176880099 -9.8313403458 -9.9292000778 -9.8720066245 -9.8795907107 -9.9384739663 -9.9646309788 
-9.9415420388 -9.964860468 -9.9875305574 -9.9552400261 -9.8976466227 -9.9560902446 -9.7661095991 -9.9661676422 -9.9370842337 
-9.9148945104 -9.9835841662 -9.9905448169 -9.9767437532 -9.9843606632 -9.9989014641 -9.9177698826 -9.7572578211 -9.8851296109 
9.3667815564 9.018419394 9.2820060307 9.2980248292 9.9623618296 7.188708589 7.4681827801 9.1556527043 9.5919978199 
7.8876937446 9.8314048045 6.5761796854 5.4502474537 7.8024436495 6.6469006259 8.3728213785 9.9252827684 7.4813941241 
7.3815610016 9.5087485488 8.3293068695 8.9349727923 9.7825339317 9.7207899322 9.7232885725 9.6245927474 9.7028808865 
5.9449795912 9.8587265262 9.8818525817 9.9183599848 9.8611531751 9.6945342842 6.2672105621 9.7781670105 9.7657904868 
9.9873687631 9.4092498427 9.8485112847 9.9163216979 9.8305804661 9.9651839826 9.7420325674 9.7498186825 9.5927359442 
9.5575655692 9.7764538746 9.7081735896 9.6659890534 9.6232398763 9.5285199879 9.6304756809 9.9185083239 9.9357712941 
9.4233249165 9.9578356703 8.7545486427 9.9421463061 8.7476696001 9.8608004451 9.7217127626 9.881901569 9.964371809 
8.7028125513 9.8486613847 9.8402044546 8.9309770126 9.9066733164 9.8693006774 9.6781720919 9.8893806447 9.8549060814 
9.6632929459 9.8897843347 9.9419242336 9.8843591334 9.9310172515 9.9861877774 9.8611780485 9.712615022 9.9282563866 
9.8518510806 9.452604093 5.0909657457 9.6496432877 9.4542904869 9.9090074958 9.8706349704 9.7244722709 9.8507689834 
9.3486828517 9.3615228594 9.3381188219 9.3613596449 6.36057376 9.9386055787 9.917511329 9.8838387548 9.900052741 
9.8884689331 9.9598764699 9.9602575983 9.8885129734 9.9770802065 9.9108806801 9.9340922304 9.9187381213 9.9378644818 
9.9685532005 9.8799773521 9.8906012518 9.9011373141 9.9125459397 9.9379959863 9.9390357349 9.9294750419 9.9565898743 
9.9973951522 9.9317625707 9.9511381236 9.9413585512 9.9545720944 9.8927945912 9.9549993869 9.9007718622 9.9442428301 
9.9076969404 9.953442894 9.9528247555 9.6073845365 9.8313724016 9.8446895187 9.8296113851 9.8727420017 9.855601525 
9.9808901165 9.7525186988 9.9253937917 9.8703129216 9.5412075348 9.4361715602 9.2230569395 9.4512010742 9.8797907258 
9.4981682261 9.5590695879 9.9026476708 9.9642341296 9.9051272035 9.9735561301 9.4439366892 9.8952817561 9.2184740781 
9.4480856048 9.8590626592 9.8106575137 9.9635259485 9.8556021571 9.8529837957 9.8006432098 9.9686514995 9.8496972448 
9.7795261321 9.9757248698 9.9008316505 9.8001245773 9.8166989751 9.4481062936 9.9794342614 9.8764581509 9.6457716827 
9.9516966144 9.8998832889 9.9514881899 9.9490869437 9.8815701381 9.8944966307 9.8887039868 9.8493389982 9.7051907759 
9.8087915041 9.8383006046 9.9130697738 9.881774335 9.8818988303 9.8910448685 9.8875337588 9.8901591899 9.8475158435 