# vtk DataFile Version 5.1
vtk output
ASCII
DATASET POLYDATA
POINTS 1244 float
0.147776 0.0553126 0.162642 0.0195391 -0.000895708 8.83631 0.074268 9.02359 0.0980223 
-0.171703 9.28875 9.52651 8.83317 0.0496456 0.0329629 9.43811 -0.268828 9.29414 
9.44468 9.40361 -0.195221 9.67457 9.85392 9.5891 -0.174143 -0.251752 1.02058 
-0.441684 -0.477341 1.86458 -0.529305 -0.574284 2.81461 -0.730217 -0.72625 3.83595 
-0.787181 -0.763714 4.93184 -0.890224 -0.833212 5.98593 -0.780421 -0.755038 6.9211 
-0.687169 -0.626329 7.69784 -0.473756 -0.452487 8.30412 -0.140983 0.937425 -0.232577 
-0.337188 1.83332 -0.409439 -0.468444 2.72014 -0.540188 -0.558332 3.72095 -0.568531 
-0.655694 4.93383 -0.684932 -0.68506 6.11923 -0.742295 -0.599872 7.06303 -0.626523 
-0.581423 7.78146 -0.669429 -0.496706 8.46971 -0.600046 -0.276304 9.08074 0.906288 
-0.413345 9.12113 1.88167 -0.414908 9.24916 2.87439 -0.40426 9.08964 3.81421 
-0.483765 9.10703 4.82518 -0.478464 9.2346 5.80801 -0.563177 9.27729 6.76371 
-0.640784 9.45116 7.73439 -0.608988 9.49532 8.74343 -0.263731 0.844959 9.01244 
-0.341928 1.89502 8.94285 -0.277492 2.818 9.00654 -0.316052 3.71753 8.98194 
-0.353514 4.75697 9.17367 -0.421407 5.8339 9.16575 -0.405567 6.77483 9.39058 
-0.61313 7.7618 9.45977 -0.587342 8.65186 9.49043 9.12753 -0.252629 1.01768 
9.05428 -0.4328 1.88736 9.07272 -0.423833 2.85998 9.12864 -0.450999 3.85822 
9.31237 -0.456431 4.85418 9.14598 -0.454838 5.88042 9.241 -0.49113 6.77687 
9.49932 -0.636712 7.68623 9.42587 -0.553674 8.52353 9.09494 0.931374 -0.251003 
9.16295 1.91698 -0.353255 9.09404 2.8483 -0.253565 9.09035 3.8127 -0.322794 
9.14522 4.8577 -0.374065 9.06192 5.88876 -0.442497 9.19119 6.76783 -0.513901 
9.28022 7.65256 -0.67432 9.57821 8.62078 -0.600676 9.38029 9.19473 0.412585 
9.2181 9.05231 1.35682 9.41815 9.27006 2.08539 9.09706 8.9865 2.94405 
9.38874 9.10531 4.06826 9.28045 9.27588 5.15454 9.55195 9.47086 6.37103 
9.80257 9.69435 7.61651 9.90271 9.78815 8.85961 9.34883 0.675547 9.31526 
9.32448 1.6206 9.41133 9.29227 2.53694 9.11454 8.99906 3.36579 9.04937 
9.06788 4.42279 9.21423 8.61673 5.4207 9.46828 9.07097 6.50467 9.15532 
9.58801 7.67432 9.5833 9.74174 8.85652 9.74381 1.01848 -0.246031 -0.171895 
1.86911 -0.487457 -0.310683 2.81879 -0.498473 -0.530858 3.78005 -0.731283 -0.493954 
4.94449 -0.699123 -0.551573 6.03851 -0.841006 -0.636366 6.92454 -0.676929 -0.705124 
7.59078 -0.823496 -0.547173 8.31815 -0.533469 -0.370876 0.869211 -0.364685 9.16102 
1.89891 -0.440522 9.04475 2.87118 -0.297633 9.09173 3.87108 -0.532693 9.0477 
4.9133 -0.624443 9.0583 5.91684 -0.720298 9.20206 6.86076 -0.488136 9.23255 
7.71548 -0.863251 9.34081 8.57832 -0.62725 9.31479 0.896386 9.15653 -0.24859 
1.89221 9.19315 -0.259793 2.87417 9.25212 -0.352917 3.72889 9.12966 -0.239205 
4.76195 9.25773 -0.315493 5.81181 9.25019 -0.313328 6.75109 9.2024 -0.540406 
7.57953 9.59641 -0.573047 8.56603 9.60374 -0.574912 0.600256 9.34478 9.48336 
1.59268 9.60606 9.46099 2.28081 9.15688 9.0008 3.00505 8.88311 9.07605 
3.99218 9.28163 9.15092 5.19164 9.23552 8.99317 6.26484 9.6921 9.47042 
7.81048 9.86952 9.59683 8.90458 9.95378 9.75924 -1.3459 0.0629135 4.91512 
-0.775631 0.213627 1.69945 -1.76292 5.54865 1.76929 -1.86186 8.0231 3.30207 
-0.742387 7.89007 0.0674158 -1.7507 5.5444 7.88447 -1.1017 8.11749 9.40348 
-2.03088 7.99658 6.38471 -1.03014 -0.082896 7.85243 -0.760246 2.85828 8.92213 
-0.806156 2.80724 -0.0159305 -2.34793 5.47749 4.91326 -1.90233 3.01923 3.415 
-2.16941 2.95626 6.39014 -0.416284 0.201815 8.6442 -1.3276 -0.0829547 6.50315 
-1.08927 0.0279818 3.29077 -0.323718 0.436581 0.49846 -1.40362 4.29398 8.27157 
-0.832918 5.46198 8.9229 -1.45809 6.8064 8.70991 -2.14266 6.75017 7.21884 
-1.76703 7.95275 7.8626 -1.01406 8.91365 8.66577 -1.15181 9.0481 7.20262 
-1.00602 9.01589 5.61277 -1.39479 4.33027 0.989629 -1.09631 5.57656 0.197829 
-2.11264 6.77068 2.54623 -1.47584 6.81339 0.790041 -1.56075 7.92958 1.71308 
-1.1194 9.0524 4.17603 -0.917518 8.8871 2.40882 -0.880758 8.95157 0.843652 
-2.08321 8.05785 4.86812 -2.4442 6.77079 4.11874 -2.16286 5.4969 3.34675 
-2.39182 6.68011 5.62539 -2.35395 5.5019 6.39812 -1.9043 4.31047 2.58762 
-1.55806 2.9933 1.81433 -1.0352 1.63359 1.04688 -1.50968 1.64768 2.64664 
-1.79363 1.60433 4.18326 -2.11907 4.25228 7.12983 -1.74554 2.92814 7.8509 
-1.9759 1.55427 5.68706 -1.7913 1.49114 7.03754 -1.17229 1.52778 8.22964 
-2.11783 2.98574 4.95375 -2.29135 4.24966 5.66981 -2.17914 4.26104 4.141 
-0.747906 0.173372 8.24993 -1.24024 -0.0702917 7.2056 -1.36867 -0.0591541 5.71608 
-1.21311 -0.0622907 4.1292 -0.949614 0.118569 2.457 -0.620925 0.41356 1.09728 
-0.997589 3.59961 8.61415 -0.779989 4.25093 8.78291 -1.12077 4.90075 8.64081 
-1.68547 4.96155 8.09736 -1.38569 5.55884 8.4403 -1.65406 6.18587 8.33081 
-2.13766 6.11749 7.65384 -1.81071 6.79778 7.95575 -1.28419 7.43355 9.01927 
-1.97776 7.38331 8.41262 -1.45653 7.95254 8.592 -2.04803 7.42445 7.5822 
-2.2415 7.42045 6.79425 -1.84644 8.04065 7.14854 -1.34629 8.69609 9.09376 
-0.672012 8.97888 9.18357 -1.6935 8.58189 6.747 -1.57924 8.55247 6.07635 
-1.12496 9.02114 6.42869 -1.21041 9.19033 8.01435 -1.80857 8.67973 7.62119 
-1.53139 8.58331 8.30411 -1.02641 6.80016 9.36225 -1.03683 6.25654 8.82449 
-1.14449 3.64605 0.487189 -1.07256 4.26575 0.259935 -1.62106 4.94955 1.40348 
-1.29856 4.95161 0.555025 -1.47745 5.59397 0.989004 -1.89878 6.14115 2.16262 
-1.6494 6.20495 1.33945 -1.81562 6.78556 1.71889 -1.9176 7.36934 2.9479 
-1.81563 7.39426 2.16843 -1.72671 8.00252 2.54516 -1.6224 7.36077 1.2418 
-1.24158 7.43622 0.255435 -1.36302 7.94641 0.78856 -1.41568 8.43351 3.71073 
-1.41157 8.52082 2.90013 -0.955485 8.87902 3.29798 -0.845411 8.39305 0.329609 
-0.336204 8.58723 0.335986 -0.740406 8.89091 1.56845 -1.10817 8.41539 1.25257 
-1.39232 8.57548 2.03249 -0.979499 6.91038 -0.0805046 -1.31865 6.22027 0.440683 
-1.02864 8.79581 4.92049 -1.50822 8.45437 4.49627 -1.82226 7.9301 4.12357 
-1.52219 8.50528 5.31829 -2.02734 7.99713 5.64887 -2.12239 7.38598 3.74418 
-2.10588 6.75802 3.37817 -2.11539 6.12134 2.95137 -1.99109 5.51607 2.56722 
-2.27405 6.09807 3.72846 -2.40258 6.11885 4.52678 -2.29403 5.49456 4.14083 
-2.21404 7.39157 6.04141 -2.40353 6.73894 6.44526 -2.43696 6.06175 5.28114 
-2.3931 6.07554 6.043 -2.38499 5.47027 5.67143 -2.26807 6.10324 6.8205 
-2.11685 5.52908 7.15858 -2.31083 6.67206 4.90926 -2.40164 7.39941 5.28511 
-2.1867 7.36389 4.5368 -1.8646 4.92277 2.18719 -1.69181 4.3257 1.84855 
-1.49023 3.68277 1.3851 -1.25675 2.94216 0.969286 -1.73441 3.67287 2.2172 
-1.8894 3.66276 2.97998 -1.73744 3.03088 2.65591 -0.944743 2.20323 0.524478 
-0.632072 1.50264 0.283256 -0.709282 1.04048 0.699897 -1.0405 1.02728 1.50687 
-1.71022 2.33859 3.05638 -1.85701 2.36011 3.84627 -1.64333 1.62942 3.43205 
-1.19008 0.898247 2.19842 -1.40951 0.823242 2.98487 -1.46118 0.83367 3.7921 
-1.62153 0.802446 4.54065 -1.33437 1.64631 1.85838 -1.56298 2.33506 2.26463 
-1.32978 2.30235 1.4183 -1.9949 4.90272 7.47834 -1.80535 4.28952 7.70191 
-2.16305 3.62307 6.74334 -1.90283 3.58748 7.46578 -2.1066 2.94686 7.15017 
-1.51423 3.61271 8.10702 -1.25681 2.92725 8.37554 -2.116 2.29117 6.03994 
-2.08785 2.2576 6.70585 -1.93838 1.51044 6.40673 -1.68618 0.78372 5.33405 
-1.72869 0.778793 6.07989 -1.72235 0.709946 6.75033 -1.53624 0.686995 7.39677 
-0.984733 2.19599 8.68989 -0.704749 1.42778 8.79222 -1.29487 0.70435 7.99678 
-0.769306 0.849776 8.58022 -1.6921 1.46312 7.74381 -1.54478 2.25242 8.17011 
-1.84856 2.25143 7.42097 -1.88069 1.5902 4.94522 -2.05023 2.30971 5.30862 
-2.20236 2.9681 5.66472 -1.9663 2.3053 4.5818 -2.01855 2.9858 4.18497 
-2.36877 3.60842 6.04383 -2.29162 4.27771 6.39349 -2.27651 4.86729 6.77306 
-2.39853 4.84539 6.03031 -2.36512 4.85882 5.2884 -2.02492 3.63021 3.76735 
-2.03852 4.27888 3.37367 -2.29524 4.87412 4.52643 -2.1787 4.87825 3.73386 
-2.03859 4.89207 2.93437 -2.28864 4.25263 4.92642 -2.15697 3.60822 4.52925 
-2.25274 3.63577 5.32048 9.14052 0.45393 4.9352 9.20371 0.252032 1.81597 
8.93035 5.56605 1.90762 9.13959 7.59208 3.38342 9.49485 7.96826 -0.0638938 
8.73582 5.49891 7.5214 9.6156 8.13156 9.34665 8.99509 7.87522 6.48692 
9.508 0.174707 7.81375 9.15029 2.77544 8.75589 9.11615 2.95485 0.425232 
8.54011 5.46912 4.83726 8.88375 2.97706 3.45717 8.78073 2.90407 6.32452 
9.61989 0.111254 8.97378 9.31847 0.295727 6.32371 9.1237 0.263922 3.4147 
9.17296 0.381036 0.410914 8.92409 4.31977 8.13853 9.23066 5.57336 8.76322 
9.24094 6.825 8.28135 8.78472 6.78613 6.98683 9.36981 7.91671 7.84055 
9.78008 9.19218 8.74478 9.76675 9.33749 7.44216 9.42088 8.90937 5.95275 
9.01102 4.33936 1.24785 9.09268 5.61539 0.437682 8.9151 6.62757 2.59904 
9.146 6.72449 1.04297 9.27553 7.71531 1.80324 9.28609 8.63185 4.44128 
9.27259 8.57607 2.72783 9.54611 8.87335 0.859923 8.92622 7.68061 5.04438 
8.62879 6.67659 4.14812 8.71661 5.49685 3.37863 8.66177 6.68523 5.67083 
8.45632 5.48421 6.24489 8.81721 4.29553 2.67848 9.02356 3.0435 2.00321 
9.18579 1.73727 1.18964 9.06334 1.75145 2.76142 8.9765 1.72279 4.24962 
8.59243 4.1561 6.9114 9.08673 2.94367 7.5037 8.97271 1.67637 5.7181 
9.1462 1.69488 6.93961 9.27418 1.5722 8.28649 8.73021 2.94056 4.94161 
8.45689 4.1839 5.58267 8.62354 4.23176 4.18896 9.4668 0.281489 8.32913 
9.42237 0.227695 7.09921 9.18075 0.294896 5.58297 9.12349 0.290759 4.18099 
9.1255 0.26412 2.60235 9.20968 0.506287 1.16551 9.10952 3.58998 8.51281 
8.96522 4.16263 8.76223 8.9318 4.97167 8.53758 8.7964 4.97154 7.94712 
8.9453 5.60254 8.08626 8.97962 6.1555 8.04448 8.77304 6.18865 7.35669 
8.93877 6.85874 7.69313 9.42657 7.64303 8.8447 9.2533 7.41341 8.21198 
9.50489 8.07959 8.48829 9.01401 7.4272 7.47478 8.97631 7.35006 6.74639 
9.19848 8.0043 7.1996 9.70374 8.69647 9.02805 9.85376 9.49094 9.4587 
9.33003 8.47341 6.864 9.15401 8.35815 6.15233 9.47142 8.91231 6.69121 
9.79756 9.45112 8.21849 9.53997 8.66186 7.58685 9.56527 8.65739 8.17687 
9.51425 7.079 9.21527 9.02537 6.61381 8.73602 9.11928 3.67955 0.733294 
9.05395 4.32378 0.457557 8.959 4.97105 1.57378 9.05958 4.98018 0.728351 
[...]
CELL_DATA 2484
SCALARS scalars double
LOOKUP_TABLE default
-5.6716978295 -3.6048094611 -2.5151361299 -2.6442355883 -5.6631144318 -5.8529387363 -5.7004521982 -5.1823355102 -5.5137204159 
-6.0096076312 -5.5997295841 -5.2557679413 -5.5291232752 -5.8043420882 -5.6324105182 -4.7453990192 -4.7696187531 -5.04990884 
-4.6356374483 -4.8940813425 -4.6935045412 -5.6896821566 -5.5818878072 -1.6660111471 0.19620444754 0.11213224166 1.9512308516 
-0.73856804723 -1.0818356827 -0.37719775219 1.0551315622 -0.61905785162 -1.6595346635 -1.7081036734 -1.0779910858 -1.2957561006 
-2.8540738463 0.27511781176 2.5643572158 1.3912286352 -1.9080419061 0.21939701113 5.8375319133 3.5877954278 0.078159289393 
4.0110702296 4.5068566082 4.3570420884 4.2665848168 -0.96039288382 -5.0975303328 -3.1975303124 2.7658858096 9.0449254779 
-0.30161651226 5.9297616377 5.2298424883 4.7139444852 4.049849941 5.6632441312 7.7697625158 7.3114497057 7.424399241 
8.5774379751 9.2968691097 9.2339399617 9.1892003776 9.0398552988 8.1180797619 4.7555421499 8.5599841223 3.9718627167 
-0.20935036839 1.6648656659 8.4061014471 0.69399787971 -1.5209230889 -0.10693318209 0.74964829165 5.7579563636 8.0369641478 
5.6719697006 -3.7709010634 -0.40754030692 -0.80036703949 -2.841661355 -2.5141582506 -0.78076114622 -1.2498073853 -0.24587033106 
-0.19458736438 -5.225915377 -4.6581192182 -2.3121158861 1.7851615747 -0.9077408226 -0.40663287213 -1.1525101457 -0.78122341661 
-1.0337113267 -0.12141524284 0.42908324757 -0.2022907707 -0.42819904853 -0.9472168314 0.24030564506 -1.3213540897 -0.58755483963 
-0.25629975965 -1.1182260697 -0.4343015417 -0.80029465594 3.7305821474 1.7875416095 2.6809269847 2.1590191096 0.44660803093 
2.6552300151 4.6880706734 1.4199398009 2.724173756 0.31290530066 2.3944176552 1.528771344 7.0043650051 5.681193192 
7.9417727102 7.501439613 9.9775837627 8.1871151426 8.6711191386 9.6202284531 6.4942460856 -0.083478477016 6.9503452215 
9.3312396312 9.6773664457 7.576738647 5.2127310527 8.5809849832 8.5698917541 1.9162353495 8.5221565986 1.8736769156 
5.8813141941 6.287217283 8.2089604382 3.4365826635 5.8954898327 5.1283638129 4.0655708377 8.6617220981 5.1024876964 
7.0910652586 -1.0751655943 -0.27677950846 -0.13198526078 0.71610576249 -0.44781445987 -1.4726164968 -0.64844981564 -0.65225336165 
-1.3013460266 0.57806148803 1.4102180392 1.4178253039 6.6709191203 8.2284454673 4.9768091824 9.320069806 8.4072748045 
6.7825079703 6.5132539087 5.676512965 7.3454796139 7.3465687813 6.2947557592 6.6919239263 8.0325317106 7.5328284928 
6.2832929943 8.3785578415 2.1463244337 3.0224233551 2.1499170697 1.2023500949 -1.6138434196 -0.36895253014 -0.62845029419 
-0.29455193607 -1.579952442 -0.78608080194 -1.275814206 -0.74409201354 -0.53100068408 0.11126592137 0.093957052583 1.4440404464 
3.1357827564 2.6012177757 0.62016131871 2.5280597132 0.41262959044 -1.1985095032 -0.40634732718 -0.49147977409 0.96920176094 
-0.74327452196 -3.8440856368 -1.651045646 0.30238707102 -0.13184297507 -0.073852397529 -1.1345929243 -1.1706500558 1.3468192997 
0.44576658589 1.8423715365 1.0060079365 2.9202206185 4.8373499375 4.1629068496 4.3329962997 3.0389027301 4.3096045379 
5.115472435 2.7004212747 2.7305929825 -0.66230626939 0.23221463612 -0.43943656699 -1.2544028886 -1.1907235658 -1.0529451048 
-0.79752243278 -1.2770793269 -1.1174179114 -0.94333393127 -1.4278685823 -1.3273585588 -1.2413245281 -1.3144584396 -0.81210681469 
-0.9395107968 -0.60383196757 -0.96559310228 -1.9889107517 -2.4570017578 -2.2262971338 -2.2014329225 -2.7231341358 -3.8347824089 
-3.6319603245 -3.5036042154 -2.3426506453 -2.7740429459 -1.8100394926 -3.6681358091 -2.8906983616 -1.8095168857 -1.695815793 
-1.838120096 -2.288199924 -3.604453275 -4.2983379909 -3.6699169224 -2.9444027907 -3.2250461761 -3.8871648775 -3.3369780477 
-3.9072706265 -3.0247925223 -1.8691688555 -2.4790164081 -3.5403181222 -2.756590314 -2.4398027466 -2.9326160371 -1.7470909908 
-1.6046881414 -1.3031827713 -1.425922868 -1.9481567084 -1.2233965435 -1.4525898215 -1.5939060337 -1.6789232538 -2.1802018844 
-1.9250921573 -1.6511094195 0.61140017306 -0.92837158874 -1.9051573426 -1.0852094617 -1.3721957373 -0.33867810551 0.56228540965 
1.2784189856 -0.58233480963 -0.077741584212 0.44513913001 0.16651403026 0.96229811655 -0.065262241861 -0.40781468747 -0.56159701387 
-0.99353186083 -2.044115764 -2.7214448086 -2.07924692 -3.2885033198 -3.8465854176 -4.0740751021 -3.7380962929 -1.8139315943 
-4.7164750863 -4.0940454879 -4.0532291771 -4.3629479602 -1.6543236553 -2.8867671483 -2.678601667 -0.55491816152 -2.0031140559 
0.29335801186 -0.11434087736 -0.83154011836 -3.4256966765 -3.2630344828 -3.4955576263 -2.6958541963 -1.4026507527 -3.5590556372 
-3.3498765245 -2.0151885888 -1.072866414 -2.4877712905 -3.3573170131 -2.8642019084 0.14429930157 1.0410255035 0.64541296213 
-2.2470269265 -1.5159021254 -0.79326746294 -2.2343048548 -0.97284451875 -1.405937414 -2.6954046051 -0.30005394549 -3.8506275499 
-2.9363551121 -2.5694773018 -2.7195864595 -1.4315972654 -1.0269685568 -1.6119178823 -1.7635324782 -1.5154217105 -1.4916497197 
-1.6788674311 -1.6633146417 -1.5709887015 -1.7547220313 -1.6298302814 -1.7399415699 -1.4034133577 -0.70460110844 1.1704524448 
-0.37185282855 -0.21982240893 0.55432417315 0.58075490244 0.082818042552 -1.4914624243 0.44988136572 -0.018671320541 -0.042327737735 
-0.2420691723 -1.8096030058 -1.1855737823 -0.80320413243 -0.97058776833 -1.3067136111 -1.2660399661 -1.2566317327 -0.95152606667 
-0.41852528205 -0.76626337631 -0.88418023518 -0.87119555325 -0.52962230452 -0.28130757564 -0.60640700279 -0.83383218401 -1.2322508322 
-1.1914135691 -1.2432064741 -0.280405525 -0.99566843933 -1.2274856229 -0.70072555927 -1.3600920378 -1.0885318654 -1.480578167 
-1.2172007586 0.27433032931 -1.3621989325 -2.7301674945 -1.5713825847 -1.3971200757 -0.60571728883 -1.1569612456 -1.305602419 
-0.24757839882 -3.487207943 -0.28888715976 -1.0675132875 0.079906712623 -1.799253784 -1.6018792039 -1.1725309967 0.17704453377 
-1.1087878513 1.9056792354 0.069259542993 -0.28260701879 -0.75675653796 -0.83226485338 -2.0914267882 -1.0149113734 -4.1902893525 
-3.78815426 -1.0167275608 -2.0215375829 0.85256796955 1.8678066744 2.1711237577 3.1819785927 2.4522528575 1.2236592982 
1.3164874637 1.2434566332 -2.9216015763 -1.5036058316 -1.7785617142 0.24683058929 -0.31909558078 -2.8128446831 -0.18324812061 
-1.206855478 -1.7807907712 -1.4098370347 -0.89778811943 -0.49447737337 -2.60304585 -3.0692069734 -2.9341719725 -3.2708523855 
-4.1325462916 -1.5527967075 -3.1143197101 -4.1269818898 -1.9989381818 -0.72710898478 -2.387862704 -1.6292256779 -1.6930188725 
-1.1415250794 -1.7915996451 3.5500464578 -1.9814681912 1.4914306663 -4.0522308634 -3.5876253356 -4.5225823749 -3.6163237304 
-0.022049684567 2.2558045082 -2.3809862422 -2.621458995 -1.8185933147 -3.4704830473 -1.8990743012 -0.86849371498 -3.8727044737 
-3.0448134446 -3.7517420496 -2.3146282684 -1.8532509777 -2.1463588372 -1.8224004954 -2.3644721654 -2.7438844569 -3.1652758463 
-2.7852732279 -1.6382962724 -0.30021129505 -4.8950672919 -4.2152354483 -0.83450178193 1.6984368928 -0.63714615325 1.5882623016 
1.6086829543 -4.8689092036 -7.2120705368 4.5057930124 0.11272254589 0.014680227943 1.2251232056 -0.48446382486 0.94359371312 
0.20705668788 -0.16442876749 -0.036823295884 -0.1454797434 0.79864713957 -0.42394935659 -0.15698750605 -0.31181332048 0.069489740361 
-1.0793342141 -0.17153964784 -1.025234916 -0.76234459442 -2.7659179766 -3.6686036975 -1.3916454991 -2.4509278177 -1.0018644261 
-2.8743230862 -2.6358501614 -2.6569779897 -2.1627486291 -1.0918923757 -3.3444524133 -2.2220069294 -1.3992383904 -2.0810793503 
-0.65949158518 -1.7130927641 -3.5514244949 -2.0611398413 8.7363284605 4.3616965731 0.61439431507 -1.5249064862 1.5806884341 
1.0511801748 4.0039323935 5.145612817 2.5715150027 9.1108588359 9.1039691144 -1.2613604944 -3.3745493993 -2.9031299272 
-1.4117708552 -2.0871058308 0.70643303582 -2.8997643724 -1.4398428526 -2.2111828085 -2.2846144661 -0.91484382298 -3.1039248622 
-3.4299311649 0.46171363935 1.0909993614 -1.3094164892 -3.3982852668 -1.4068515703 -0.48049277802 -0.86547480392 -0.71653254277 
0.035031836284 -2.4385674947 -1.574035821 -2.7572301408 -4.0426490696 -8.4638807492 -2.390081897 4.0816085527 0.042823317006 
-1.2945535896 -3.0266030949 -1.4897053751 -4.2627330736 -3.695491735 -3.463670406 -3.9102350503 -3.9656083623 -0.99219992422 
-1.3289510077 1.1058448005 -3.8448551183 -1.3605647784 -2.503708398 -1.0445654007 -1.0210442226 -1.7950984195 0.22653600476 
-1.1557537016 -0.95977374408 0.3299227196 0.97047098308 0.48282963173 0.47504743887 -1.9595734485 -3.0286337629 -3.7215528735 
-1.8682796735 -0.99637943155 -3.9024408288 -3.3445449947 -3.1492848691 -1.5028198951 -1.041377304 -2.6189497402 -2.1164522153 
-0.44657861721 -1.2828258995 -1.3419805198 -0.54516441524 -2.8521321215 -3.3393384395 -2.4104456764 0.47220318874 -1.7786133977 
-1.8441264736 -1.4452577526 -0.85128819717 -3.7194018247 -3.9030242839 -3.5166383119 -4.3629929301 -4.1501802114 -3.8709450254 
-4.6137083311 -3.4865599404 -3.6718511806 -1.3422244502 -3.0374413624 -0.21202918813 -0.0090151187598 -0.15564987825 -0.23458339092 
0.54254575059 -0.12840246058 0.98245098046 0.76062624077 0.9308692133 1.037135321 1.2468595187 1.0373525244 1.0776423399 
0.95890932943 0.66637503876 0.94496945288 0.78480932972 0.14889071245 0.77806810024 0.25738054028 0.3109176417 0.2552358184 
-0.413998964 0.091300055968 -0.29229830247 -0.76632064135 1.043346107 0.39089021912 -0.86359815995 0.96634393194 1.3994989773 
1.178479977 1.1722947017 -0.14926020895 -0.11148734762 -0.34945031981 1.4169146711 0.78798257069 0.82807540173 0.72199568137 
0.22817206032 0.94582927238 1.3159209805 1.1361139819 -0.16771170734 0.67089566034 1.0506809346 0.60416246204 0.75175374584 
1.1317142681 1.1542712485 1.2582973368 0.94614399011 0.38914336107 0.98795845658 0.34923588335 0.71476905153 1.2827154192 
0.86770490045 1.3203253053 -0.49630247627 1.0880833134 1.31321166 1.5398116323 1.3386210147 3.818917691 2.2535725852 
2.4807882762 1.5926390655 1.8321198444 0.51064164455 1.5016745645 2.7447113072 1.6863096068 1.7820678923 1.4759761478 
1.5985733119 2.0830938788 3.0660951505 2.4722882248 1.5156209586 1.7264262978 2.186692235 1.5823779434 1.9885840754 
1.8174256023 0.56407286666 1.048835169 2.1746352409 1.815863799 1.3946969496 1.8375731891 -1.0655340487 2.0015092696 
-0.34619326118 3.8717072902 2.8533261285 0.34416592173 1.0760332523 -0.13830851185 2.7655502156 -0.15434507402 0.66610792514 
0.66337534082 -3.8282638167 2.713773295 2.2762491905 1.9355401901 -0.6002740645 2.2957199769 2.8621286516 2.4128732912 
2.9099962302 0.65844052312 1.031954387 1.4212953787 0.7823126754 2.8015487492 -0.53456440954 1.757630887 1.3092948889 
0.75929421515 1.3981399715 0.86718138422 1.8932900701 1.808544958 1.6018857257 1.9080649316 1.3947725741 1.6835145515 
1.117170646 1.4056865702 1.9020458398 1.8996314668 2.5619497321 2.4896485849 3.0701769326 0.44486253644 1.2986111786 
1.0003168846 0.71759739945 -0.03280040603 -0.4955490435 0.32812016874 0.7356014726 0.13263623541 -0.079423040814 1.4712780573 
-0.39143683372 1.2905835493 1.4015556697 1.2384483817 1.5126591201 0.93231861192 0.87293874714 0.77456248746 0.74743759119 
-1.1249427877 0.28238871795 -0.24364730659 0.2232293186 -0.093087452207 0.27329364391 0.45434815144 -0.10823114359 0.59593912945 
0.16535999215 0.50266569927 -1.2758125541 1.8360970422 1.8248277612 2.3178242033 0.80728440554 1.6122356931 2.3968154681 
1.9795198701 1.602568781 2.7739760356 2.7551307039 2.5625494436 2.3541156734 0.32560936261 -0.040642290706 -0.40472032562 
-0.91148760406 -7.407136212 -3.8611363895 -3.9092015944 -2.3285296749 -0.92924193893 0.35738497041 -0.78587056349 -3.843929836 
-2.4465173578 -6.9011510242 -4.7323379377 -4.1909666098 -3.8363890977 -3.7263962704 -2.0899933664 -7.0307312314 1.1244078965 
-0.12570448849 -5.8327133563 -2.4569521572 -5.1808193113 -6.6769734259 -6.0935948168 -2.6106414576 -6.1116927808 -7.5046067748 
-7.2927501845 -4.7420696523 -6.6577954875 -8.1595833667 -4.8324453075 -6.1148850455 -6.6587720452 -5.757200974 -5.7528548374 
-9.2591879473 -8.3310758348 -8.8672226505 -9.2162849805 -7.943293358 -6.2578778092 -7.8446783885 -7.9023344868 -9.4464667991 
-9.8516643347 -9.7158236119 -9.6828544163 -9.3377328074 -8.7983148678 -8.4039249039 -9.2907013441 -7.5324859974 -5.8178323631 
-7.0433143848 -6.6358309296 -4.8405043122 -5.5821600198 -4.9558344421 -9.4165650873 -8.9229865107 -8.9644617944 -9.0248055536 
-7.8202437682 -8.5639904305 -8.1943534361 -8.1463587125 -6.9134317236 -8.875447218 -7.0620729871 -7.769391641 -9.4329984871 
-9.5721603139 -9.5673866289 -8.1384243244 -7.4988554342 -6.3396732427 -8.0224979192 -7.7707604744 -8.1731573928 -8.6089898937 
-8.0792321862 -4.5840932134 -6.3419915938 -2.8631291626 -7.2919193928 -8.4779256729 -6.7255854232 -7.2547547982 -5.0268669296 
-4.5500835067 -4.5890819048 -6.428042636 -2.8575292686 -4.1680979655 -7.5745357863 -9.2766527758 -8.5741415299 -8.8576950606 
-9.3404549877 -9.6058696357 -9.1539008612 -9.4202930746 -8.8321238236 -8.6565483885 -8.7778837454 -9.2760831478 -8.8504274698 
-9.467995205 -9.7186640345 -9.5984627031 -9.5158960766 -9.808808721 -9.5504054469 -9.7192041867 -9.5497368178 -9.5059622389 
-9.2705134492 -8.5385664461 -9.4694816121 -9.4750768156 -9.5284485031 -9.7975837067 -9.4516703059 -9.6905877515 -8.9970080633 
-9.0004068157 -8.9449688596 -8.116590032 -7.7958487171 -8.0703072279 -8.2686408127 -8.4080273103 -7.0883693964 -8.3170993597 
-8.2753360265 -7.9102023171 -7.6822039671 -7.0945244639 -8.0659778023 -8.2150296817 -8.6636785059 -7.7275315493 -8.6776401827 
-9.0112919788 -8.7573031986 -9.1124224236 -9.5533356027 -9.6581922366 -9.4933615656 -9.1020042669 -8.895265547 -8.7257648332 
-8.9014760196 -9.0977806857 -8.4225504716 -8.046487308 -8.9262425073 -9.5695119328 -9.1679500285 -9.5238557267 -9.4864768433 
-8.9763841253 -9.0825980005 -8.009284276 -8.3346611778 -8.3943815664 -8.2842613518 -9.2727083661 -8.2810900819 -8.3161471668 
-9.6209962284 -9.4871333771 -9.6258577984 -9.0899500024 -9.639491636 -9.6089756918 -9.6469633921 -9.4775071754 -9.0331655888 
-9.2224392783 -9.0674150757 -9.7309005428 -9.7597382274 -9.7969003655 -9.8701662102 -9.7630356542 -9.782910502 -9.7723258481 
-9.8226998743 -9.8123238238 -9.7847992838 -9.8805701577 -9.805719736 -9.7926775448 -9.8258899654 -9.7136474551 -9.8010186419 
-9.871916008 -9.9535832949 -9.8102453769 -9.8285801933 -9.7834381141 -9.927776263 -9.9624021174 -9.9351630094 -9.6089044325 
-9.6701127027 -8.2135166515 -9.3198241234 -9.6614561317 -9.9970355589 -9.7770656002 -9.8369530915 -9.890751267 -9.8357936515 
-9.8455981068 -9.847571817 -9.9566151841 -9.7965230849 -9.8399267245 -9.7976016252 -9.8252142446 -9.7756759042 -9.7199684922 
-9.7993005695 -9.8367487476 -9.8319957042 -9.9576729415 -9.822761653 -9.6442055338 -9.1966801312 -9.6401887484 -9.3909527417 
-9.2165040122 -9.1633317652 -9.3926419445 -9.3275016325 -9.6075114527 -8.9673753985 -9.9600786026 -9.1777919814 -9.7683715746 
-9.8080393565 -9.2360212158 -9.8055823432 -7.5820269057 -7.2353203338 -7.3386485714 -6.9981478706 -8.4222380846 -8.7892493787 
-4.2827810038 -4.1188525177 -8.549328948 -7.7190747771 -9.5268743311 -8.6069155833 -7.7554906821 -9.6515727635 -8.4557248289 
-8.5424591259 -7.0126948941 -6.9010271879 -6.2251453902 -6.4928457757 -8.2806884985 -5.3632745156 -4.2660162897 -5.045905126 
-5.8523630117 -8.5207791966 -7.9735111126 -8.8265336446 -7.1739429863 -7.2253654466 -7.8822926515 -7.7117478536 -9.7305611988 
-9.661804922 -8.950233396 -9.0578477518 -8.4463874551 -9.3604072979 -8.5924473844 -9.5417042496 -9.8018363061 -8.1410873717 
-9.8766468358 -9.8859204228 -8.6506911465 -9.3821700068 -7.3504146684 -9.3750391338 -9.7788548249 -9.9132606608 -8.947453829 
-9.5233164761 -7.2909237863 -8.7451987961 -4.335993593 -5.8266044507 -7.9211352401 -7.4802900187 -9.4045714194 -8.0046691734 
-9.887453669 -9.3536844009 -8.8619819224 -9.1037859382 -6.9472050254 -5.6021783418 -7.4729684937 -6.1273665037 -8.9723990622 
-6.0968307273 -7.8510446662 -6.4610911452 -7.2981844295 -9.1806222741 -6.9746234188 -7.6132440066 -2.7612812165 -8.3765888476 
-4.0069168657 -6.3186584203 -9.6080666285 -7.6472580961 -4.0749427265 -7.3942111929 -2.2595590773 -8.247700186 -8.9470040398 
-7.3943481398 -3.5161108019 -6.4620355362 -7.5982821218 -6.3182911945 -7.457566991 -5.0564819265 -9.0679046405 -7.4720539588 
-9.1473434178 -8.894048172 -9.9395374234 -9.3302684805 -9.6699249291 -9.7355545889 -7.2287663917 -9.6228323763 -3.9618620318 
-7.708714712 -8.8395928921 -8.7022637781 -9.1945527996 -9.6822360042 -9.5683822084 -9.6839319218 -9.3075138106 -9.814990379 
-9.4771063571 -9.8258786422 -9.8463318179 -9.1417158984 -8.2668135368 -8.2413478477 -9.7226160522 -9.8458354981 -9.7963564744 
-9.7011360769 -9.6726617743 -7.9413430875 -9.7969777661 -9.9325469953 -9.9819699637 -9.9235772499 -9.8717338626 -9.9252551813 
-9.6232973926 -9.9348661006 -9.3908687599 -9.3791160549 -9.74369114 -9.6003496631 -9.81747981 -9.6134690903 -9.7118493605 
-9.887687967 -9.8146817751 -9.8424918233 -9.6359333325 -9.7544991129 -9.7516630186 -9.742557812 -9.8513623131 -9.8610306435 
-9.6728576103 -9.8379384585 -9.827679764 -9.9133060604 -9.9904485515 -9.8592380149 -9.898400752 -9.5063505657 -9.8566846615 
-9.9197248735 -9.7591415373 -9.5487614814 -9.9098565422 -9.8507710779 -9.8047394504 -9.9625076904 -9.8993758156 -9.9602747596 
9.2281604104 9.9608469229 9.34921861 9.8365708471 9.137571419 9.4365279615 9.7696646791 8.5565658173 7.9176681746 
9.8482679541 9.3369709102 9.9543912453 5.4640199423 9.4155943042 9.3644599299 6.7159582621 8.7207586755 9.1537682575 
9.6904530997 7.2201553428 7.6674018666 9.8232657976 9.5491909779 9.4673987234 8.1577789338 9.5296197854 9.2467072781 
9.9644917869 9.4211524014 9.7213153258 9.3265042738 9.4291486078 9.4324498857 9.6864592763 9.154961804 9.2326388945 
9.3836715515 8.5851194718 9.094313371 9.983232113 9.5676525933 9.9607800498 9.7347088198 9.6306292638 7.553230932 
9.9008867705 9.080988846 8.2192381758 9.9848574035 8.0449002775 8.7320392652 9.2542644663 9.6569619206 9.6559691491 
9.4574794197 9.6902209203 9.6690586673 9.5778322552 9.969745959 9.446330033 9.7909625443 9.8185023152 9.8159789126 
9.8382953447 9.917515136 9.9694611114 9.9442206009 9.8245605331 9.8070088278 9.4980054574 9.265649163 9.328661742 
9.8857038108 9.9235615371 9.9749108643 9.6010537043 9.8097571331 9.8351051008 9.037090018 9.5930024229 9.0680054102 
8.8869517679 9.5316640105 9.4553238244 2.2738934455 8.9636545108 9.2412105078 9.6341832764 9.2477723059 8.1896912402 
8.1905443245 7.973803798 9.9195395811 8.4381985353 9.5209884973 9.8641494408 9.891897688 9.9750376221 9.9577147773 
9.7832511565 9.7947982006 9.965298998 9.7723108858 9.9182537025 9.9816229772 9.9581819234 9.9525078143 9.9591603547 
9.8920717508 9.9025850371 9.8995549942 9.9056210001 9.8867032497 9.8691517862 9.9078727538 9.8685778497 9.9804897755 
9.9167388395 9.9682636652 9.9188892291 9.8992485492 9.8959864851 9.8759781461 9.9042070399 9.9479836375 9.9570896055 
9.985380385 9.9701728482 9.8801517195 9.9849986315 9.8435204204 9.8676901607 9.8385466257 9.7454619157 9.9431735889 
9.8398727797 9.7803383263 9.8675373213 9.7677821051 9.6326851836 9.6858636874 9.9004293063 9.9158410665 9.9644250495 
9.9199148068 9.9832992178 9.9777989559 9.9668643237 9.9331995186 9.9707084677 9.8997570598 9.9539007808 9.8601952613 
9.9282611906 9.8937492064 9.9258018889 9.9205096977 9.7754310891 9.8952536625 9.9594910639 9.8030556431 9.9247670431 
9.9761147962 9.879372509 9.780964668 9.9717687953 9.986305774 9.9571039481 9.9586740813 9.916819322 9.951056334 
9.9373214978 9.846884243 9.9021275694 9.8994356866 9.913975603 9.5319037033 9.8283311635 9.8659085747 9.8994900016 
9.9715667516 9.9428348213 9.8684300637 9.8343581722 9.8055192926 9.8446356103 9.7801063216 9.6852858697 9.7466991978 
9.7143646146 9.80377727 9.7340003944 9.9423958781 9.7275308956 9.7759135512 9.8650060204 9.8252727614 9.8705814945 