# vtk DataFile Version 5.1
vtk output
ASCII
DATASET POLYDATA
POINTS 1244 float
0.147683 0.0541078 0.163044 -0.0157732 -0.0357246 8.81691 0.0562383 9.02413 0.071923 
-0.280073 9.19819 9.45911 9.02041 -0.0188782 -0.0140549 9.21618 -0.175159 9.17641 
9.30875 9.29549 -0.274358 9.78783 9.82504 9.67351 -0.186666 -0.272642 1.01302 
-0.433451 -0.470201 1.86509 -0.596807 -0.639337 2.80563 -0.75376 -0.74908 3.83781 
-0.856791 -0.827148 4.92589 -0.866652 -0.811403 5.98872 -0.781335 -0.756466 6.91986 
-0.670624 -0.615841 7.68289 -0.427556 -0.424751 8.24238 -0.153532 0.903223 -0.241293 
-0.31554 1.82592 -0.381631 -0.458117 2.71812 -0.536635 -0.529809 3.73092 -0.532286 
-0.659027 4.93828 -0.685095 -0.635606 6.10064 -0.701715 -0.625961 7.03601 -0.634307 
-0.549283 7.7147 -0.664495 -0.36233 8.37493 -0.50083 -0.233048 9.07178 0.918653 
-0.391993 9.13235 1.87686 -0.36017 9.09326 2.85328 -0.388898 9.10003 3.82273 
-0.443517 9.08712 4.84563 -0.519236 9.35628 5.79668 -0.547759 9.21453 6.78947 
-0.641295 9.39948 7.73996 -0.707814 9.58115 8.7702 -0.282478 0.802868 8.93722 
-0.368548 1.8846 9.05827 -0.250588 2.79942 8.98724 -0.379976 3.7313 9.17406 
-0.379244 4.73565 9.1931 -0.413007 5.81696 9.15111 -0.416785 6.76897 9.33322 
-0.647983 7.73606 9.47975 -0.65961 8.62447 9.59 9.14972 -0.248597 1.0184 
9.09883 -0.423393 1.88648 9.09576 -0.436967 2.86768 9.04419 -0.428867 3.84674 
9.22413 -0.457415 4.84414 9.12437 -0.463707 5.87246 9.38749 -0.532088 6.75343 
9.48818 -0.621935 7.6935 9.58501 -0.588196 8.57656 9.03223 0.946976 -0.227462 
9.17913 1.94786 -0.38017 9.03801 2.83328 -0.237417 9.07503 3.79934 -0.357278 
9.1404 4.85416 -0.377281 9.05255 5.86756 -0.493853 9.27062 6.75187 -0.519654 
9.36953 7.62235 -0.73384 9.49557 8.64506 -0.651627 9.5448 9.43232 0.475191 
9.13958 8.96288 1.33056 9.36897 9.38289 2.10741 9.11136 8.81659 2.95233 
9.25547 9.06394 3.95673 9.25913 9.13477 5.17694 9.33074 9.18702 6.37278 
9.78591 9.68627 7.63442 9.80918 9.72999 8.86418 9.61685 0.611568 9.55922 
9.255 1.5214 9.19168 9.03669 2.42971 9.10148 9.03918 3.37893 9.19112 
9.00135 4.47311 9.23708 9.16391 5.37691 9.30402 9.05791 6.43309 9.24413 
9.71069 7.68578 9.74772 9.59827 8.94287 9.67278 1.01843 -0.243877 -0.163788 
1.857 -0.50922 -0.328106 2.81664 -0.483832 -0.516041 3.76463 -0.768249 -0.519861 
4.93041 -0.721631 -0.58862 6.03766 -0.848755 -0.639156 6.93072 -0.718904 -0.750619 
7.60924 -0.847132 -0.552787 8.31783 -0.545434 -0.406082 0.88399 -0.277679 8.9978 
1.89756 -0.540374 9.15423 2.85804 -0.293281 9.08863 3.85559 -0.602617 9.18578 
4.90267 -0.611185 9.06442 5.90636 -0.663842 9.24518 6.8565 -0.486779 9.21458 
7.70147 -0.917835 9.5205 8.58922 -0.62437 9.29613 0.92256 9.1228 -0.22499 
1.92273 9.2095 -0.249501 2.87318 9.15514 -0.318302 3.72696 9.2125 -0.270357 
4.75374 9.08027 -0.287563 5.79284 9.26072 -0.339184 6.7203 9.28055 -0.5759 
7.6087 9.48931 -0.594933 8.65139 9.54791 -0.565974 0.543305 9.37788 9.44858 
1.48894 9.42431 9.30779 2.34081 8.96627 9.03623 2.88261 9.11147 8.87064 
4.08005 9.18968 9.07461 5.18846 9.22152 8.98647 6.25997 9.60884 9.27268 
7.75073 9.79699 9.55491 8.89099 9.95202 9.8079 -1.37014 0.0559538 4.91625 
-0.756722 0.224356 1.70578 -1.85182 5.54076 1.74956 -1.83616 8.00331 3.30572 
-0.877321 7.92661 0.00767343 -1.89246 5.51573 7.93631 -1.01193 8.10384 9.21852 
-2.02632 7.97857 6.41494 -1.04654 -0.107055 7.86376 -0.68258 2.86492 8.75379 
-0.845644 2.79747 -0.0423331 -2.49048 5.46676 4.90517 -1.91853 3.01916 3.41502 
-2.23886 2.97182 6.38829 -0.404377 0.209056 8.62196 -1.33808 -0.0740673 6.50016 
-1.09192 0.0221796 3.28698 -0.291955 0.449242 0.518872 -1.39862 4.29733 8.28867 
-0.853451 5.45438 8.92903 -1.47325 6.78692 8.72672 -2.17707 6.74817 7.23602 
-1.82728 8.01276 7.89598 -1.03118 8.92169 8.58152 -1.16711 9.09644 7.23339 
-1.10095 8.96781 5.6089 -1.4258 4.32809 0.978561 -1.12314 5.57562 0.18685 
-2.00341 6.75747 2.58165 -1.52286 6.80709 0.758289 -1.57828 7.94474 1.67937 
-1.11297 8.99821 4.15828 -1.00328 8.95942 2.42523 -0.712535 8.76501 0.907538 
-2.00402 7.98242 4.8978 -2.29103 6.75128 4.13052 -2.1883 5.49071 3.34082 
-2.37526 6.6731 5.62068 -2.40376 5.50005 6.40605 -1.90898 4.3129 2.59333 
-1.5758 2.99241 1.81214 -1.04304 1.63197 1.04832 -1.52872 1.64655 2.64438 
-1.8038 1.60392 4.18353 -2.15595 4.25264 7.13215 -1.78148 2.92847 7.80132 
-1.95956 1.55656 5.68801 -1.80279 1.47424 7.04239 -1.33038 1.46946 8.34174 
-2.17398 2.98544 4.95118 -2.40444 4.23618 5.67621 -2.23272 4.25493 4.13174 
-0.834847 0.131922 8.32301 -1.21173 -0.0546999 7.19349 -1.38219 -0.0679693 5.72145 
-1.19384 -0.0510575 4.13156 -0.947828 0.126157 2.45783 -0.614168 0.415706 1.09965 
-1.02108 3.59326 8.65184 -0.727393 4.26287 8.72515 -1.16437 4.90807 8.62417 
-1.66032 4.96396 8.06396 -1.40372 5.56316 8.48682 -1.71283 6.15866 8.35683 
-2.04962 6.10881 7.60447 -1.92038 6.76763 8.00455 -1.25658 7.42809 9.02436 
-1.73308 7.38452 8.30711 -1.69765 7.99138 8.71988 -2.19851 7.42688 7.57492 
-2.15873 7.40093 6.82482 -1.99844 8.10236 7.15336 -1.19293 8.54755 9.10124 
-0.591099 9.04061 9.20366 -1.73218 8.50466 6.79051 -1.68277 8.65607 6.02708 
-1.15714 9.01058 6.3904 -1.17176 9.11573 8.00908 -1.75915 8.69971 7.6227 
-1.46565 8.55828 8.26953 -0.946624 6.83684 9.23965 -1.08842 6.2228 8.89576 
-1.16024 3.64461 0.477689 -1.09348 4.26641 0.251976 -1.63662 4.94737 1.41106 
-1.30478 4.95038 0.553447 -1.51007 5.59037 0.972148 -1.90929 6.13165 2.15882 
-1.62973 6.19145 1.34222 -1.82823 6.78406 1.7117 -2.06336 7.39151 2.93486 
-1.88918 7.40217 2.16843 -1.79334 8.05124 2.52938 -1.71206 7.39046 1.20708 
-1.19693 7.41201 0.306459 -1.33827 7.89593 0.79934 -1.5242 8.4478 3.69882 
-1.39961 8.43633 2.90693 -1.00512 8.87159 3.27737 -0.886038 8.33369 0.327857 
-0.400006 8.73598 0.210984 -0.834237 8.87911 1.6034 -1.25754 8.45072 1.24531 
-1.34263 8.4795 2.02696 -1.12984 6.9061 -0.160899 -1.32188 6.2157 0.436689 
-1.10852 8.85105 4.92055 -1.59696 8.40189 4.49154 -1.95251 7.92071 4.09259 
-1.51002 8.46795 5.32325 -2.01091 7.95858 5.61548 -2.22674 7.38958 3.73162 
-2.16917 6.77158 3.35465 -2.19838 6.11105 2.93948 -1.98728 5.51403 2.57108 
-2.29337 6.10156 3.71021 -2.47738 6.10998 4.51155 -2.28165 5.4819 4.13888 
-2.34112 7.41099 6.03581 -2.40167 6.72745 6.43566 -2.47128 6.05048 5.28602 
-2.53588 6.05531 6.027 -2.46409 5.45521 5.66733 -2.31487 6.08127 6.81194 
-2.28433 5.51587 7.2173 -2.4082 6.71829 4.88381 -2.28698 7.36954 5.24637 
-2.21969 7.3107 4.52231 -1.89111 4.91839 2.17947 -1.74238 4.32557 1.84965 
-1.52738 3.68239 1.37805 -1.30513 2.93438 0.950865 -1.75605 3.67229 2.21576 
-1.92151 3.66396 2.98155 -1.76872 3.02487 2.64778 -0.964014 2.19941 0.5203 
-0.659607 1.4982 0.277123 -0.730696 1.02871 0.68801 -1.01998 1.03318 1.51491 
-1.74238 2.33158 3.04951 -1.90796 2.3559 3.84221 -1.68061 1.62533 3.42855 
-1.20882 0.893876 2.19095 -1.38827 0.833905 2.98972 -1.51332 0.814078 3.78253 
-1.61324 0.805063 4.5409 -1.35364 1.65156 1.86362 -1.5861 2.33662 2.26582 
-1.34132 2.30019 1.42058 -1.96504 4.91634 7.43159 -1.92502 4.30212 7.77891 
-2.2031 3.61085 6.74719 -1.89986 3.59878 7.46314 -2.02753 2.94452 7.07952 
-1.4907 3.63376 8.03487 -1.35391 2.9323 8.48713 -2.23548 2.25972 6.04543 
-2.11898 2.26717 6.67787 -2.00195 1.49765 6.39676 -1.68613 0.780903 5.33598 
-1.72094 0.786179 6.08161 -1.75124 0.685615 6.75329 -1.68014 0.621422 7.45079 
-1.07997 2.15338 8.69329 -0.683675 1.4425 8.70603 -1.16691 0.737783 7.9052 
-0.758903 0.862631 8.51275 -1.58133 1.46029 7.69099 -1.42262 2.23157 8.05533 
-2.01588 2.22471 7.48054 -1.90364 1.58526 4.93685 -2.09755 2.3029 5.30195 
-2.31428 2.96561 5.66463 -1.99522 2.30734 4.58407 -2.06059 2.9837 4.18247 
-2.25253 3.61018 6.02773 -2.33109 4.28098 6.39551 -2.21401 4.87374 6.75243 
-2.42412 4.8379 6.04317 -2.31764 4.86487 5.28732 -2.07543 3.62767 3.76343 
-2.08667 4.27371 3.36653 -2.37454 4.86467 4.51405 -2.22618 4.87313 3.72674 
-2.05603 4.88961 2.93373 -2.36492 4.24176 4.92 -2.23636 3.59834 4.51667 
-2.25649 3.63524 5.32003 9.1105 0.447462 4.92912 9.1196 0.263153 1.81821 
8.90952 5.56245 1.90556 9.00248 7.58139 3.3955 9.44576 7.96417 -0.0695073 
8.75445 5.48887 7.51717 9.54648 8.20306 9.31146 8.99545 7.86526 6.46399 
9.45681 0.169784 7.83168 9.46922 2.83802 8.70504 9.2082 2.95905 0.425884 
8.40202 5.47979 4.83096 8.84523 2.9744 3.45496 8.70408 2.88389 6.31746 
9.46084 0.142601 8.92912 9.24816 0.287793 6.32319 9.15112 0.263524 3.41519 
9.09997 0.394815 0.427477 8.82764 4.32395 8.1074 9.04833 5.61729 8.79887 
9.1887 6.89579 8.29465 8.60859 6.808 7.02191 9.28997 7.93925 7.84557 
9.68677 9.17405 8.71913 9.82472 9.33516 7.42374 9.45495 8.90188 5.9226 
8.96679 4.34094 1.2531 9.12881 5.61693 0.439422 8.94534 6.63516 2.59346 
9.15294 6.71694 1.05391 9.23749 7.70553 1.8004 9.30885 8.66612 4.4729 
9.41699 8.59144 2.70851 9.57931 8.7677 0.806051 8.91671 7.66179 5.03047 
8.67844 6.66544 4.1536 8.69612 5.4738 3.37844 8.53797 6.6824 5.62094 
8.36103 5.48761 6.24705 8.8212 4.29763 2.68599 8.9759 3.0436 2.00246 
9.15766 1.73329 1.18396 9.07983 1.75682 2.76771 8.9635 1.72548 4.24967 
8.5004 4.13197 6.93675 9.07066 2.92718 7.49573 8.9815 1.67906 5.71395 
9.1867 1.70341 6.91042 9.27831 1.54881 8.2639 8.70215 2.93558 4.9397 
8.53929 4.1806 5.58207 8.58456 4.21964 4.17599 9.47756 0.260839 8.32233 
9.3597 0.210134 7.09614 9.18937 0.301885 5.56781 9.07738 0.292227 4.18151 
9.15002 0.263203 2.59847 9.1583 0.505387 1.1704 9.10035 3.58038 8.47544 
9.16501 4.20802 8.72849 8.88149 4.95875 8.56798 8.87269 4.942 7.91837 
8.89505 5.6209 8.19022 9.05695 6.18221 8.03764 8.88167 6.16375 7.31 
8.8991 6.87959 7.68242 9.40015 7.65643 8.82182 9.36858 7.37401 8.19296 
9.47858 8.07456 8.48454 9.19275 7.37985 7.43077 8.89401 7.41172 6.75722 
9.19314 8.03774 7.20996 9.56893 8.67042 9.02447 9.67697 9.46283 9.39262 
9.26066 8.49027 6.87413 9.20464 8.31895 6.14539 9.43972 9.05906 6.74895 
9.71255 9.42793 8.19377 9.52115 8.66153 7.58658 9.59529 8.63623 8.18495 
9.40219 7.06274 9.16363 9.14769 6.54957 8.78468 9.06733 3.68193 0.734286 
9.0933 4.32304 0.461558 8.94348 4.96951 1.5728 9.04767 4.98164 0.729376 
[...]
CELL_DATA 2484
SCALARS scalars double
LOOKUP_TABLE default
-6.251890603 -3.9536415627 -5.3819019585 -4.4503508406 -6.2033533735 -5.6132113356 -5.8767990143 -5.5896369224 -5.6965189615 
-5.70896394 -4.9966711024 -4.8288786798 -5.0093037846 -4.8432342831 -4.9109922377 -4.5991133174 -4.2689991761 -4.3343559615 
-4.754258065 -4.6514784317 -4.5680438397 -4.9395072167 -5.0125274648 1.5000284457 -2.3624103766 1.4316761229 -1.6954036005 
2.0183786228 -0.73109769292 -0.6975062003 -1.5457252364 -1.3740252379 -2.3784822537 -0.10867138789 -1.0285563244 -2.9173043927 
-0.12777626531 0.14526261725 -0.064209068887 -0.71639169032 0.25324718781 -0.20730489571 -0.4716085654 -3.2015513926 -0.0517999974 
4.1586316623 2.2303400221 2.4893979521 2.2569084649 -1.8690114552 -0.00045424128033 -0.066902275192 -0.76595971814 7.0801069224 
-1.0230801093 6.0135099412 3.5313878224 2.4755818884 5.5749182957 4.6814782116 7.1950995207 8.5203475044 7.8438749474 
9.2102595862 8.4102114981 9.1527232226 9.6147821393 8.2641261876 7.5001006565 3.3748887839 8.7624689001 5.1655444974 
1.9072139966 4.5860257201 6.5029558774 4.7353604194 -0.24544749191 5.3983884764 2.6219619644 5.629256079 8.2316320915 
5.7093309661 -0.16184291308 -1.0012012434 -1.9224142247 -2.0304879802 -2.2924595733 -1.6229611572 -1.6466505939 0.19942825468 
-0.81077142525 -3.3172648097 -2.4204123527 -1.8506107651 -0.17903739951 -0.53298595304 -0.51776035435 -1.5477668185 -1.033261706 
-0.65163575424 -0.98105880368 0.014293403371 -0.62796726736 0.10912835148 -0.70304128778 -0.13396121895 -1.0123865879 0.095218198198 
1.2530656462 -0.13779549612 -1.257705624 -1.0899559504 0.31008243694 3.6334447639 2.8517280407 2.5649784047 0.9824681662 
4.2996501059 2.4384856808 2.3969155136 3.6778139492 -0.72627145253 0.48072628744 0.37211002834 6.43139208 6.8250863839 
6.3957905094 7.201240759 9.9057381904 9.5921262852 9.421892402 9.6341988681 6.906923225 3.6408368182 7.1786816664 
6.6862877598 8.2291643412 8.1498495996 7.8650312028 8.927369741 8.9693347477 7.0732473453 9.7134503677 3.4593787901 
3.4393471315 4.2878932439 5.900091421 5.2973165035 7.1237132081 7.195030521 4.6116107524 6.7513858035 7.7452166586 
7.4026844268 2.1617446842 3.124971776 0.4586628582 -1.9024609517 -1.4294743143 -1.062749454 0.63018720761 0.095289235749 
-0.67119490175 -0.92455892222 0.59010614443 3.4829342862 2.3993951533 9.2569006043 6.1743369048 8.3821883346 9.3294150059 
6.0514665676 6.4264501878 6.1347745957 7.0436401548 7.0589425107 4.3914256275 5.5574450987 7.0526255523 6.649801665 
6.6840310286 7.3010794815 4.3635791169 0.24601594622 0.025773382368 0.3121959201 0.91640107331 0.16357930831 -1.79562977 
-1.1453401984 1.4761266335 -0.9941537026 -1.4143651074 -1.6958289088 -0.9558584871 1.0171080299 1.7422864053 1.1901236864 
3.6028209079 0.66822903284 1.9078503768 2.1444494604 1.9705412737 0.10190119937 -1.7161338793 -0.67239075876 -0.060210923827 
0.50224906805 0.35069647318 1.6986444692 -0.42990965638 0.27579614381 2.2265315919 0.27981414101 0.26420432664 1.2487693355 
1.9733940208 1.0343999215 0.86875916916 4.9965845068 4.2164707103 4.6595747166 1.1261792309 3.4800798073 4.9752477871 
4.3059532841 3.6153674439 2.214018549 1.538438879 2.4031100636 -1.5908924623 -0.8097179091 -1.210944792 -0.61791969274 
-0.85506513112 -0.86729851272 -1.1620307856 -0.60892827477 -1.0750923108 -1.268373639 -1.328225773 -1.217386704 -0.98216265412 
-1.0247868823 -0.63444817004 -1.2715297739 -2.2575113013 -2.4620313072 -2.8587014472 -1.7961500799 -2.8081062789 -4.5038390824 
-3.6065810851 -3.7139636074 -2.1881647681 -2.2443804377 -1.430779723 -4.6654399237 -2.9101621145 -1.871390539 -2.0769404108 
-1.889484341 -2.599074392 -3.9364126134 -4.0113411936 -3.8390104885 -2.8415333699 -3.9331599729 -3.741268074 -3.8766774008 
-3.8787834763 -2.6682249381 -2.4533596403 -2.6459662484 -3.6057616495 -2.7115031666 -2.9473427916 -3.0743177471 -1.8614246924 
-1.4731946959 -1.3554052859 -1.4941906777 -2.0671606794 -1.5814562063 -1.8924058509 -2.1276133531 -1.7005489849 -2.1690334344 
-1.9783913528 -1.6488687409 -2.618623125 1.2289300439 -0.3104192026 1.7732199465 -1.6261715817 -1.0778696838 -0.04429706009 
-0.48474076644 -1.1798665358 1.7245100835 -0.43404104833 2.3642678092 1.4471748949 -1.7504529799 -1.8692051012 -2.8329571495 
-0.92008236321 -3.2694681583 -2.4285919246 -2.1166692491 -3.1515223762 -3.6427174698 -3.8605012624 -3.533063073 -0.98478362737 
-5.1353877512 -6.0045778222 -5.7693839467 -4.472655179 -1.6624468221 -3.3369663289 -3.3034975645 1.2723482457 -2.5407326097 
-1.3542903526 -2.7484837805 -4.8234471721 -1.4688804531 -1.5744823998 -0.61232467019 -2.4071883987 -2.1902512033 -1.2844245343 
-2.9133630772 -1.5591143306 -3.9175375325 0.18828837541 -1.4156599414 0.74109661721 1.2006038244 -2.3655932912 -1.8938469726 
-3.2705446626 1.640403588 -0.43225201604 0.56477711839 -0.95613016223 -4.1270078885 0.22177629224 -1.9314391909 -3.5046391496 
-2.9795855896 -2.8581481709 -3.0400210805 -2.7301333983 -0.54777078824 -2.0722583598 -2.0963027594 -1.9244985334 -1.7908779814 
-1.3556156601 -1.6932700993 -1.8090489379 -1.8867785236 -2.2147876851 -1.9145660478 0.17338565979 -0.65657356767 -1.7524600889 
-1.5268470136 1.1760787388 -2.8436050677 -2.1179698558 -3.4349383431 0.5151480019 -0.1444411252 -2.5853836823 -1.5050719207 
-1.2845708593 -0.97596962367 0.51593678438 0.18933090898 -1.3722798704 -1.3302359652 -1.1778341078 -1.3820871547 -1.1099039908 
-0.14799111989 -0.11750236284 0.35544263137 -1.1933590777 -0.40897719003 -0.51167197531 -0.16869578675 -0.71844135348 -1.1206753871 
-1.1347379332 -0.99696985825 -2.3315582861 -1.2337944895 1.0549374212 0.32401873741 -1.188421924 -1.4377934105 -1.9971416901 
-1.6028604852 -2.3739108807 -0.14827299714 0.37042398874 0.90457683858 -1.1497898911 -2.0923080408 -0.91991872024 -1.8621323373 
0.58692008695 -1.5040973504 1.0707668443 1.4150541312 0.6145071223 0.98099888838 0.13196107691 -1.1559508836 -0.46153550106 
0.82535969937 1.3085003456 -0.91458651576 -1.1993241766 -0.77767855464 -0.76479337135 -0.24871781358 0.045739700076 -0.46908490129 
-0.42676025458 -0.21746276112 -0.34077280762 0.36633690674 1.3255100864 -1.9773582274 -0.68197357193 0.95133923548 4.8629123471 
-1.2239243472 -0.76199413152 -1.5769121272 0.53675177871 -0.27786565806 2.3740408515 0.20550552247 -1.4437103599 3.7074423825 
-2.457825032 -0.13018321861 1.9292442731 0.98936684204 -3.3121833325 -2.197811036 -0.359879198 -1.6507214036 -5.2402574932 
-0.53796167891 -3.2008480013 -1.3715303339 -0.026528520387 -5.853125262 -3.9549226921 -5.6617999004 -0.60142509025 -1.7521749186 
0.69050974864 -1.4182902066 -3.373893882 -2.4282712915 -2.0861245078 -4.0421666499 -3.5063891681 -3.6498896035 -3.0079343083 
3.5426230675 4.8665618148 5.1230913189 -3.2689841455 -2.8885301304 -4.436361266 -2.023575543 0.2467171037 -2.7823526248 
-3.6169672258 -3.2501483108 -2.0514934006 -3.0487775778 -0.89305616016 -1.8366173417 -3.4416140326 -1.4623396071 -3.6840372414 
-1.43920876 0.31908512012 -1.2042763627 -4.7512352027 -1.6863706375 -3.0854358016 -1.0646113469 -2.7275768244 -1.4889625623 
-1.0611986124 -1.6065856124 -3.3956012016 0.67174553289 -1.7419440556 -0.66450167981 0.2687075947 -0.61526197411 -0.39276130346 
-0.25363505856 -0.13004443451 -0.50505558984 -0.14113173108 0.7936294878 0.36791084313 -0.84331896132 0.04269137535 1.8038214365 
-1.1156011391 -0.66813236437 -0.90068571237 -0.42488649721 -1.477473493 -3.1092223803 -2.3303346922 -3.3970079047 -1.781349912 
-2.2423938315 -2.8632514613 -4.1472251789 -1.4498331326 -2.4829946944 -2.3892739993 -2.821547339 -4.0481367125 0.064533438949 
-1.3238188535 1.2832334946 -0.39023221596 2.7300612865 7.5841992668 -1.9926497663 -0.82541532958 -0.55587359113 3.1627676323 
0.33864133001 0.82296946333 -0.29565000267 1.282234982 8.9452225906 9.6674919649 -2.8806046507 -1.1224302785 -0.1828640029 
-0.72079716145 0.59566331752 -3.5738779556 -0.68468640993 -2.9050965266 -0.76596279531 -1.5066489686 -3.9486094659 -2.4273250171 
-2.8538175943 -2.1067316699 -2.0344354662 -0.87104881396 -1.6094172881 -1.7563322568 0.20204251917 -0.98201034848 -0.76985103831 
1.0449067801 -1.4939334992 -2.3498404692 -1.1793856809 -2.1967544895 -8.4815120001 -3.2281416507 5.7362127689 3.110373494 
-4.2907691042 -2.9503291603 -3.7000399757 -4.2391289304 -3.7676355809 -4.675990904 -4.7025763898 -3.2109735263 -2.3814835213 
-2.9280307372 -1.0263825061 -2.2367766908 -1.139341596 -1.8855761884 -1.4235890978 -1.9285237556 -1.8565185739 0.006302165511 
-1.488219304 -2.8420198494 1.7763772463 -1.2533360254 -0.069424292789 1.4807343204 -4.2661205184 -2.9548108988 -3.9451264198 
-2.380980489 -4.4192648218 -4.1736971875 -4.087249317 -1.8870104854 -2.3672799398 -0.24001196567 -1.6317297352 2.1983575698 
-1.1350381438 -2.3435454085 -0.99153582101 -1.6111642205 -0.32792681442 -3.4808661902 -1.6126104685 -1.9042472599 -1.4519548145 
-2.3324370708 -2.1380323849 -3.8279644619 -1.3906230714 -3.3374200356 -1.3093257331 -3.468643263 -1.7619400473 -2.6264865218 
-2.2466525949 -2.8365157121 -3.576467941 -2.519508977 -2.6706847423 -0.1985774904 -0.12521818603 0.30065623479 0.12747992315 
0.56083348314 1.1942704355 0.88958949989 0.83715322023 0.38808481086 1.1235093869 1.2191883652 1.2917120784 0.9084110134 
0.33473876658 0.42689869957 0.35480909322 1.9477086952 0.83520376528 -1.1775462456 0.53501319747 1.2848955532 -2.0285215315 
-1.2613826573 -1.4066247899 1.6797175066 -1.5354009097 1.2543046589 -1.3401201863 0.1061033621 1.520271927 1.5628957254 
1.4453292365 0.57714273581 -0.49447695669 1.011975252 0.065035577468 1.4873233169 0.2685610193 0.8108083864 0.1725965127 
0.93191065867 1.4612627583 0.38977232822 1.0346620218 -1.1566331155 1.3790362221 1.7507518511 1.8134874537 1.4376986761 
1.0742073521 1.251394991 1.0436023182 0.66270780337 1.5755672961 -0.91640096643 0.82266005987 1.5056680615 -0.14166650241 
0.78926833713 0.068558180978 -1.3752006294 1.6008949117 -0.90950371569 1.2335514061 3.17566576 0.60197933533 2.9845379432 
0.88649486326 1.2452443501 3.1097121326 2.2941331195 1.6137276116 4.3490726675 0.65189248073 0.90225606652 -0.07122036005 
3.2948200253 2.2052164257 1.6865655999 1.1567729692 1.7255525124 1.4347496702 1.4323088986 1.460824758 1.5290437056 
0.4405711322 0.46202206139 0.47351861319 0.88088292757 2.0509543034 1.9966059369 2.8129959622 2.1145207597 0.7780352874 
4.5691431402 2.6032601024 3.1117475293 0.068255571368 -1.2180660031 -0.3894325434 -1.6239338866 2.4029567592 0.22501852675 
-5.1261435899 1.5939601987 2.2441687209 0.88537007286 0.70660878807 0.072635298378 -1.5414451309 2.1579634096 2.6064358636 
3.3658979052 0.9426144666 3.8024801441 3.3505588945 0.12752063528 4.1719300208 1.3012394531 3.4838695336 1.026291127 
1.5483697575 1.3484147388 1.7111848156 2.2489442397 2.4672015596 2.0746885598 2.3890310492 1.439417172 1.987818548 
1.3371493747 1.6422886533 2.213504417 1.5040996856 2.1913404287 1.6349483894 1.3083720795 3.2495831941 0.62617042494 
2.4939159863 -0.35528298952 -2.3302498679 -0.29812411203 -1.700937125 2.2203576383 0.28681846669 0.79233290038 0.90229115793 
1.0216707235 1.9399990312 -0.313196525 0.13009325335 1.2339868501 1.2656336496 0.75137730327 1.0054317664 0.97300064122 
0.34120345263 -0.17491893327 0.40731077201 0.9655925056 -0.52438650521 0.39979418069 0.52112497534 -0.9653424938 1.2593961734 
0.99424652806 1.1159109062 0.69557398308 0.76651259539 1.0518949494 0.081303094878 1.4583813831 1.3569154955 1.6990997175 
1.5325035744 0.32635875634 1.700297445 2.4540596031 1.9834614767 1.5199672617 1.3808113894 1.8768227604 2.5783126266 
-2.7920681877 -2.2258339144 -6.1878142761 -5.9820288738 -3.1991631647 -3.5504142879 -1.7104999327 -1.7675617137 -4.579231278 
-3.9184853009 -4.8398244346 -3.5235238576 -3.3499581355 -4.0185263776 -4.3763686355 -5.4538191697 -4.7847343012 -5.7681882218 
-6.0697580177 -5.3686119501 -5.2205471406 -4.3435461732 -5.0480562393 -7.2204815111 -3.4165951704 -5.2221791076 -6.4267236183 
-6.8250212155 -6.4202028398 -6.3382919562 -7.5540056113 -6.4064583255 -5.1349490716 -6.9479832093 -4.9156210903 -4.9423969424 
-9.4339329824 -8.8615732124 -8.1566034989 -9.3543314247 -7.7528185985 -6.7109309995 -8.1540572519 -7.6710045956 -9.5307866073 
-9.127456313 -9.7983436038 -9.7893643655 -8.9626582053 -8.1607913208 -9.0283880253 -9.1136302523 -5.733968886 -6.9841116439 
-6.3878099472 -5.5866438437 -4.8943735415 -6.3768515639 -4.6646817651 -9.2637807378 -9.0650999394 -9.1734391378 -9.3768883739 
-7.4124972553 -8.0409602145 -7.4385433335 -7.6101781568 -6.5663491405 -9.0650846875 -6.6571215901 -7.4905702699 -9.3035651487 
-8.9044436514 -9.0799793872 -7.5022934663 -8.186955285 -6.8382006778 -7.7250431045 -8.6405654928 -7.5328532626 -8.6958720005 
-8.5252880303 -6.4751976363 -4.9177851481 -4.2326287503 -6.0852412503 -7.6493262824 -6.5684864337 -6.1860844513 -6.5874077283 
-7.146587541 -6.7696143534 -4.9903584268 -4.1234645896 -5.5102844352 -8.0008398265 -9.1061225213 -8.5933524584 -8.8750350808 
-9.3072487516 -9.6177986787 -9.2474574736 -9.4531337066 -8.7871942427 -8.6684009553 -8.7387883762 -9.0591569785 -8.8901730629 
-9.662557821 -9.6946323476 -9.5060500761 -9.6687455589 -9.7522401058 -9.6969977615 -9.5647249053 -9.7064034138 -9.4502728358 
-9.3307257337 -8.4473424079 -9.330065071 -9.5634685106 -9.5426691796 -9.7046938665 -9.6291568328 -9.3871733439 -9.1141650099 
-9.078022123 -9.1116679399 -8.3705553062 -8.4429946178 -8.4086712608 -8.4174670279 -8.1420534001 -7.1196682463 -8.1765281882 
-7.9485497918 -7.9990959847 -7.7471811069 -7.138534947 -8.0035466619 -8.2729512144 -8.6710549489 -8.2410304836 -8.7043071668 
-9.2706281043 -8.9055170186 -9.091504618 -9.3714936028 -9.3833527558 -9.3960692286 -9.3102188973 -8.9439127027 -8.6923299949 
-8.9476967632 -9.0659231821 -8.4594029645 -7.938035383 -8.992307446 -9.3984167315 -9.2500178514 -9.6134230266 -9.3747287198 
-9.05251162 -9.0439119148 -7.7661258386 -8.3363654706 -8.4243531503 -8.5726202788 -9.286575286 -8.1940202443 -8.577600237 
-9.4411556145 -9.3533037887 -9.4347284443 -9.1780738262 -9.5264002596 -9.4546384898 -9.5891293352 -9.3241173457 -9.2235974959 
-9.277148405 -9.2814800221 -9.765759264 -9.7570578904 -9.7438899959 -9.7762532369 -9.7057892252 -9.6674457404 -9.7552152995 
-9.6950463595 -9.8210569987 -9.8334656343 -9.824225928 -9.8214187998 -9.7826200993 -9.7728112119 -9.7470689796 -9.7851561792 
-9.9386515687 -9.8658273125 -9.745890509 -9.7487785004 -9.9219790044 -9.9699756204 -9.8855566975 -9.9628448309 -8.9919312862 
-9.7582818735 -9.1589543845 -9.03875386 -9.880893585 -9.8935997161 -9.9395257096 -9.9520252682 -9.8602595332 -9.8717095373 
-9.8491913728 -9.86443234 -9.8834975777 -9.7969647135 -9.8650804354 -9.7948608832 -9.7847107723 -9.8148488014 -9.7826267318 
-9.8152131032 -9.8943040698 -9.8050851518 -9.8840447393 -9.817729595 -9.5798771101 -9.5057085286 -9.5205884773 -9.5052225217 
-9.1885415733 -9.0488788884 -9.4323644673 -9.1794930508 -9.7284602399 -9.7991435399 -9.6452692983 -9.7425056236 -9.6676594902 
-9.5927671547 -9.5557148859 -9.6263548579 -7.9991342174 -8.5918678626 -8.7464046445 -8.7254361384 -7.9974754734 -6.0789796837 
-5.0413810193 -6.0963909649 -7.9796310299 -7.3682560277 -9.1538558479 -5.9925122964 -7.428750895 -9.6278137686 -9.8166478836 
-9.8207145804 -8.7606608011 -5.9119974369 -4.7508331092 -5.4489525504 -7.9481838183 -6.3600581844 -4.6984688509 -5.1238336383 
-5.6550920615 -7.0677821054 -8.8053345958 -8.0157049821 -5.2976616681 -8.5614613822 -9.1648087896 -8.9903797031 -9.1420165887 
-9.2550326547 -9.6489279068 -9.9297026869 -8.8439760616 -9.3929165407 -9.067364606 -8.9143439965 -9.355354376 -9.1911407292 
-8.2056481972 -8.5202092382 -9.4422540858 -9.2418045594 -8.0138380138 -9.4070141802 -9.4009479957 -9.7538467558 -9.5950291384 
-9.4095490943 -5.5873372128 -8.0145088506 -5.6680828516 -5.6169176892 -9.4762380939 -7.6462064085 -9.3483896034 -9.4644598947 
-9.7515245275 -9.5637764177 -9.5229692523 -9.6709109802 -7.1589413401 -4.4789202684 -7.3811915626 -4.640179137 -8.4142522123 
-6.7589063313 -6.1753484724 -6.2184729259 -7.5621619207 -7.9488173404 -6.165150054 -6.5166104618 -3.5172005282 -6.2760772914 
-6.7875543879 -8.24377602 -7.8940803798 -7.1417772073 -6.6198372539 -7.312858041 -4.4984428865 -6.2669658699 -7.576265404 
-3.1611972941 -4.942507162 -7.8831772006 -8.9611283649 -8.0193534781 -7.6448299067 -5.5797406112 -8.123972041 -7.6781317066 
-9.5323971174 -9.5889004799 -9.8766844479 -9.9422643418 -8.9899348293 -9.6399204158 -8.7871972449 -9.0006001419 -4.9537587656 
-8.516394644 -9.3264160333 -9.1887920094 -9.2259360464 -9.7075266045 -9.9816926647 -9.7703106898 -9.3078137604 -9.9294624174 
-9.6292949246 -9.689737279 -9.9682914215 -8.6301104632 -8.414191759 -8.1875188962 -9.9347731392 -9.7795533543 -9.9643098367 
-9.9567386626 -9.2798682365 -9.2298115026 -9.682341639 -9.3805111629 -9.9800973927 -9.9055291355 -9.8244372168 -9.8794549676 
-9.9829496668 -9.9799092305 -9.9144119035 -9.9478109123 -9.8523653633 -9.6189835024 -9.8420318808 -9.676880172 -9.8324361899 
-9.6936494917 -9.7457091827 -9.6861372081 -9.5459792857 -9.6591196631 -9.651555522 -9.5796165709 -9.7343816646 -9.9624427361 
-9.7228410398 -9.8367825453 -9.835115211 -9.8865158649 -9.9865845867 -9.925461944 -9.8072550386 -9.9975405892 -9.7989399539 
-9.7829413267 -9.948149063 -9.965094757 -9.9236254022 -9.9145101538 -9.9621400391 -9.9913491229 -9.8222958015 -9.9964963229 
9.9833734927 9.727763867 9.9494189865 9.753873754 9.5125464778 9.3960169257 8.062047852 6.4258364564 6.3729529976 
9.3602844602 9.7120513144 4.2679945697 1.0260184786 9.172851336 7.9582973816 -1.2786130896 9.9631255831 9.6974028825 
9.2910090844 9.9609422971 -0.47335168427 9.1793397077 5.5279966 9.736322292 8.3882965763 9.7036682716 8.3315386816 
9.1017568183 7.6582444845 8.5963304223 9.4136263151 7.6579052137 9.8028356727 9.8578901171 9.781112327 9.9192106229 
9.2597924246 9.0953692821 9.824216708 9.5379909031 9.9764310174 9.610454088 9.2597950475 9.5576745279 9.0367580443 
9.9621403223 9.5982840576 9.0598696748 9.9155358118 9.2938199261 8.9200559242 9.130273415 9.8887245796 9.9279045088 
9.978134267 9.9406093254 8.9587943903 9.7409104876 9.627736278 9.8657528651 9.6821511446 9.840041326 9.851223514 
9.6736418972 9.709198956 9.88924601 9.680926227 9.817502053 9.6577199694 9.7924599922 9.9493366695 9.8469049963 
9.7602256771 9.7120567733 9.9038108463 9.2658305669 9.9344059661 9.9127107415 9.7429124196 9.9819900307 9.9259012605 
9.9427347875 9.7866568911 9.934837493 5.3638137653 9.6318800695 9.148011286 8.9763778962 9.7293898096 9.9472438841 
9.7542295023 9.4846137263 9.8733833016 8.5305628589 9.7597451742 9.7242726058 9.7674695474 9.8503995753 9.9667288826 
9.8943209786 9.8913992458 9.8788632375 9.8924838652 9.8904381883 9.8153870145 9.8993033316 9.7244917115 9.4599188159 
9.8080600015 9.8237603211 9.8876967936 9.8066621133 9.8725407812 9.8668954159 9.8911723018 9.8688099956 9.9915418402 
9.9556227662 9.9801972149 9.9610084045 9.8636297951 9.8725057237 9.8400782152 9.8643585126 9.7435637671 9.9505771146 
9.9837651485 9.8381656804 9.9592401443 9.8863782867 9.8859450332 9.9253986982 9.9470799966 9.6422502597 9.9452282809 
9.9666767996 9.7514789902 9.7537065974 9.6182583411 9.8595720723 9.9158629519 9.958626263 9.9107414793 9.9689274497 
9.9523863708 9.9538532011 9.9867336189 9.9559020594 9.7801206091 9.9223260575 9.9458406999 9.9897046458 9.9758007925 
9.9533457496 9.9879182501 9.9955196052 9.857690901 9.9713799235 9.9027277126 9.8729484192 9.8293385726 9.9126851172 
9.9916960185 9.9713101241 9.873832103 9.9440362884 9.9969011577 9.9615395762 9.9340100287 9.4962339506 9.9599775969 
9.9489816818 9.9234126991 9.9466533981 9.9688684178 9.5626681083 9.6945854029 9.5240325906 9.8242695625 9.9608297585 
9.8927819216 9.8966441224 9.8541667872 9.8489514178 9.7967620305 9.8485621439 9.7549893959 9.7358554218 9.8745757833 
9.757889381 9.8915642085 9.7151490141 9.7199081104 9.7586097568 9.8805277798 9.772779112 9.7991587079 9.777354845 