# vtk DataFile Version 5.1
vtk output
ASCII
DATASET POLYDATA
POINTS 1244 float
-2.20864 -2.12356 -0.887151 0.890694 0.724338 8.0005 0.349931 8.61504 0.83345 
1.91293 6.11734 8.64357 7.63517 0.551672 0.570959 8.4421 2.00229 8.27339 
8.66147 6.11162 0.286332 12.5284 10.8695 8.77313 -1.45506 -0.83594 4.34747 
-2.37153 -3.67275 0.437658 -3.84786 -2.17099 2.88345 -1.98221 -3.00064 5.51325 
2.88857 1.87286 5.88409 -1.37881 -1.7141 2.58568 -3.68653 -3.62345 6.71161 
-2.91117 -1.8868 9.87906 -0.42308 -0.137965 13.0404 1.59194 5.02057 0.904244 
-3.7223 1.33235 -3.84962 -1.33739 4.40535 -1.58779 -3.55564 4.39676 -3.64448 
1.33238 5.26542 1.08962 -4.46371 5.62247 -4.79893 -2.29538 4.6308 -2.63579 
-3.72991 7.89407 -4.54587 -1.94062 12.0169 -1.93367 -3.9032 11.3485 1.72561 
0.168114 9.17577 4.12236 -1.3412 6.31627 3.94014 -4.31581 5.85218 5.12904 
-5.89369 9.47923 4.66696 -3.96265 6.20094 4.92422 -0.16139 8.06048 8.48237 
-3.84795 9.34734 9.82017 -1.35237 11.0725 12.9864 -1.86004 3.13345 13.3317 
-4.86435 0.431241 10.286 -2.92869 1.95303 8.31673 -3.61692 4.4308 6.69207 
-4.6586 6.0274 10.1222 -2.79444 6.78061 5.42407 -2.75541 7.65331 9.1974 
-3.91516 7.95061 13.2264 -3.80431 12.4143 10.4217 8.6213 -4.6201 2.1305 
9.85787 -1.68084 4.56557 8.1099 -4.32253 2.07906 6.31473 -5.22611 4.22389 
9.6439 -5.50858 4.53935 6.16432 -2.57483 5.03537 9.03132 -1.42046 6.2998 
10.3301 -3.95257 7.79731 12.0058 -2.94141 10.1964 13.7559 3.39527 -2.17708 
10.7308 0.909653 -4.92082 7.74395 1.70786 -2.71801 7.33454 4.41208 -2.89309 
10.5108 6.11539 -4.61309 6.42821 5.94418 -3.41114 8.86454 8.07138 -1.8085 
13.8763 8.85607 -2.55808 10.3411 12.3079 -3.91353 10.3868 9.76912 -3.82729 
7.96635 8.93607 1.63563 6.52645 7.44168 3.34482 7.92349 8.48685 6.63073 
9.51399 9.99853 2.0433 9.04959 8.66729 6.27368 7.86432 7.87606 8.52271 
6.60104 7.31538 9.24677 7.63114 7.88501 5.24932 11.5557 -1.21323 12.7861 
12.8321 4.94491 12.2953 8.65615 2.90867 8.31364 6.7902 1.71583 6.17225 
6.14807 5.36279 5.67321 6.26933 8.31713 6.69125 8.28905 8.22045 8.63184 
11.0525 2.99251 10.5109 12.469 8.83178 13.5295 3.29835 -3.83729 0.227054 
-0.218849 -2.34471 -0.920218 2.73607 -0.40105 -1.61682 5.29593 -2.96172 -3.88215 
6.37767 -4.79479 -0.680555 4.36139 -2.60349 -4.21506 8.38329 0.223072 -2.2522 
9.94116 -2.70491 -2.91426 13.5731 -0.159154 -2.11264 0.17132 -2.00875 13.6425 
2.39873 -5.09415 10.9798 4.17295 -1.12101 9.28649 4.30473 -3.4035 6.42115 
4.36078 -5.9141 9.97535 7.36186 -4.59375 10.1136 6.52398 -1.66231 9.40203 
9.51725 -0.894053 13.184 10.754 -4.45262 10.9629 1.67528 13.1799 -3.50085 
1.08516 9.89935 -3.93097 3.52014 9.59491 -0.906129 6.02822 6.8796 -3.27385 
5.24121 12.022 -4.53643 4.40546 7.92568 -4.12726 6.1549 10.1538 -0.438279 
7.86074 9.75993 -4.06766 11.4685 10.8009 -4.13435 -2.04755 7.10932 12.0123 
2.16986 10.6253 13.4304 2.67276 9.34759 7.97166 4.11344 6.32275 5.68754 
5.10576 4.7136 11.1915 5.40316 5.96574 5.94329 6.953 9.18763 7.93194 
9.6975 10.4426 12.7396 6.54579 6.99535 12.575 1.57226 -0.556855 4.57703 
0.577238 -2.10852 0.305937 3.38863 4.58092 1.94582 3.41264 7.46597 2.35732 
0.155775 9.05462 -1.43738 1.67682 3.40632 7.03741 -0.789673 7.79101 10.3702 
0.613696 4.57854 7.14304 0.0461243 -1.01957 6.54636 -2.46819 3.55701 11.5328 
-0.212908 0.852244 -0.760133 -2.12315 7.98796 6.61404 -1.39042 2.01686 1.18959 
-1.4972 0.189704 5.66592 -2.98515 0.531431 8.62807 0.721836 -1.01734 6.98658 
-0.929113 0.535663 3.01233 2.46849 -0.240617 -0.282777 1.39729 1.80401 10.6589 
-1.75221 4.88331 8.33444 0.907478 4.60929 8.34437 -1.40531 7.15352 5.63383 
-1.08441 7.08938 8.49272 0.909406 12.5299 8.55157 -3.30111 8.20897 5.80866 
-2.64064 8.68232 7.02746 -1.48485 3.45397 1.99436 -3.15384 4.49547 -0.323364 
-1.92057 4.98822 -0.959043 0.390529 6.59836 2.31631 4.01562 8.14065 3.21245 
-1.73397 8.67334 2.78151 -1.72482 7.55219 0.897073 -0.580912 9.9445 0.631845 
-1.52873 9.33313 4.3753 4.02841 7.65394 4.25297 -2.5233 7.30648 3.1418 
-2.18291 4.96429 7.52889 -1.53737 2.32502 6.78423 -0.0201364 3.04728 0.592121 
-1.71574 1.53123 5.79681 1.01716 4.04293 -0.281512 1.43747 4.43083 3.18696 
0.557991 3.41325 1.27881 1.3614 5.06164 5.31176 -0.106378 2.90398 4.16133 
2.209 2.27998 5.99228 -1.83746 0.946449 9.99022 2.85176 1.49873 9.3597 
-2.11945 4.38139 3.61887 -2.03799 3.95026 6.04594 0.912003 3.25055 4.79515 
-1.40805 -3.12153 9.15162 -2.6781 0.128016 6.81982 -2.23591 -0.582239 8.00358 
-3.66336 -0.743679 5.78687 -2.67155 0.0742076 1.02808 -1.71496 1.70963 -0.247782 
2.847 4.45853 10.6416 -1.39909 4.73906 11.7637 -0.456293 7.14995 10.3097 
2.94906 5.57457 8.16365 2.01902 4.36663 10.2913 3.34361 7.66193 7.1333 
0.509964 7.08545 11.0667 -2.06412 9.04335 7.94762 -2.36762 5.81597 8.51413 
0.841622 7.45856 11.3908 -0.526081 10.3287 8.75875 1.68312 9.7638 7.34894 
2.41024 7.90237 4.44085 2.7867 6.13602 9.43449 1.34752 10.6745 11.5467 
-2.42066 8.00868 8.23817 -1.1286 8.31945 9.04116 0.100929 6.69917 4.25803 
-1.9553 4.35056 7.37789 -1.18967 10.8401 6.99977 1.56242 8.09028 5.77678 
2.58547 10.5998 7.69036 -1.51022 4.80882 10.7731 1.13594 8.19463 9.67345 
0.375941 4.3731 -1.71622 -3.90559 5.78679 -0.14607 0.598437 5.79708 5.17275 
0.735807 4.81235 -1.4325 -2.29518 6.79958 1.96747 4.48521 5.30095 4.67428 
2.91355 7.76995 1.58837 1.1215 7.47359 4.46128 -3.17171 8.25378 0.743327 
0.457071 8.47142 -0.930689 0.881145 9.85502 5.10283 -2.40602 8.36399 3.80807 
-2.63267 7.74244 0.0063135 1.85212 7.25401 0.112106 -0.382572 6.4653 1.54928 
-0.583673 6.0085 4.01756 -3.04934 4.96348 2.45829 0.692361 8.38311 1.93861 
-3.10902 7.79132 -0.712273 -0.807223 12.4782 1.17878 2.16852 9.9702 2.19724 
0.581463 8.35923 0.476575 -0.0994521 8.15827 0.42157 0.451734 5.95877 -1.02254 
-1.14769 10.6011 4.91039 2.00482 10.5741 3.71576 2.52178 6.6679 6.17378 
1.00276 10.5963 6.46124 3.00336 7.51103 5.25283 -0.834966 9.58644 3.96979 
0.754332 4.6532 2.81645 -0.033937 8.66528 6.24053 0.388193 4.47067 2.45379 
-3.28016 8.74902 5.87662 -1.67653 5.71412 2.20853 1.69374 7.50668 5.97758 
-1.1555 9.70243 7.23273 0.339222 5.82022 3.54825 1.55258 5.12976 4.4231 
0.0849957 9.26652 6.78304 -3.2222 4.68767 4.66343 2.26897 5.29926 6.92317 
-1.68591 8.53587 7.46092 -0.763439 9.58831 5.55356 -4.54042 6.94743 5.16782 
-1.03421 4.25086 5.12396 0.175046 5.66702 0.0033173 3.23311 5.34563 2.4469 
2.83363 2.10763 0.958163 -1.81314 4.13636 1.32093 3.13438 2.56739 4.3902 
-0.0857142 6.8681 3.01171 1.3507 4.84439 5.6628 -2.04936 0.153557 1.37246 
1.37518 1.14876 -2.3621 -0.497393 -0.093285 3.44659 -4.92782 0.845516 1.34827 
0.581937 -1.48274 1.867 2.4349 4.4063 4.73304 4.26349 1.14485 3.4149 
-0.420208 3.1213 0.787937 0.76528 0.367242 1.79707 -0.0289285 -0.0923656 5.08182 
-2.09904 3.75239 5.74782 -2.85859 -0.652205 4.46029 -2.28925 1.34125 -1.57066 
3.33219 1.44843 2.34459 -3.10306 5.45855 5.62537 -1.49562 4.79415 10.0326 
-3.44862 4.05932 6.32979 -0.0268116 0.929458 9.37713 0.0770173 6.02261 7.78955 
2.44473 3.34929 7.23043 -0.650094 5.09979 8.39872 1.30943 4.91509 8.39666 
2.66481 1.64825 7.34776 -0.691154 -0.710738 6.57177 -4.67188 0.675957 5.10389 
-0.771516 0.246051 2.54048 -0.698155 3.98602 6.55595 1.5273 0.675061 7.45307 
0.46996 2.59287 10.9938 -0.699134 0.949519 8.91933 0.959812 0.519829 10.9782 
1.9364 -1.71027 9.37107 0.69067 3.7062 9.59284 2.37214 3.30924 6.98272 
-2.54842 2.49871 6.51547 0.403312 -0.606419 3.52543 -0.129844 1.8497 6.21586 
-2.14124 4.76312 6.7345 -2.52191 0.476935 3.6488 0.674705 1.8362 6.55892 
0.615896 1.88935 3.67173 1.66154 1.49768 8.05238 0.490803 5.39135 8.6567 
0.773296 5.04156 3.54731 1.32425 5.90298 8.00926 -3.13074 4.42023 4.71215 
-2.24404 2.70173 3.63467 1.62284 4.13531 4.60822 -0.07393 5.08561 2.60099 
-2.09399 4.24676 0.851758 1.96254 2.61674 6.30421 -3.30904 3.09358 8.14414 
1.1174 7.04753 4.32877 10.1491 -2.07294 3.64169 11.5708 -0.978676 0.453434 
12.0249 6.51361 1.85687 12.8901 4.29528 3.67074 10.0235 8.44517 -1.83632 
9.71239 5.169 9.9532 10.1192 7.36087 9.05158 12.2901 5.27011 6.4886 
12.4062 -1.73342 8.2624 7.43857 0.811671 10.5939 8.31304 2.31742 -0.355948 
9.58406 6.87523 6.71905 5.57189 2.48013 5.04871 10.7947 1.17752 4.72173 
6.90765 -0.35217 10.584 8.12745 -0.192486 5.46563 6.84971 -1.81459 2.94041 
9.46101 -0.123718 -2.20223 13.7205 3.70212 10.0488 10.1257 6.14857 7.71743 
8.90213 9.18294 8.78773 10.7457 8.10248 10.6294 8.42746 6.63979 11.4145 
9.2419 10.2147 7.54505 8.07044 5.01491 8.67404 8.50466 7.09382 4.6708 
8.58371 5.79348 0.324648 8.56366 5.12093 -1.50887 10.7441 7.23298 3.99909 
10.0055 6.86139 4.11496 7.50362 8.77145 4.12126 8.72773 6.49444 5.29547 
8.2117 7.79858 2.43917 10.506 12.1121 2.11865 11.2398 8.73254 3.92645 
12.1699 8.10295 3.9578 7.30706 5.79231 4.5412 9.55968 9.93581 3.8892 
12.4129 5.45059 4.02733 9.55781 2.67808 6.07217 9.35035 5.05521 1.32619 
7.69103 3.0984 -0.086165 12.6816 1.72721 3.90911 9.52406 2.9693 5.69367 
5.68841 1.776 8.80688 7.76759 2.49619 10.6455 10.8941 2.48364 3.70573 
6.10241 2.19014 9.47287 9.71035 3.49647 10.6326 6.98956 4.23709 6.77151 
11.9942 5.68627 4.13402 8.94977 2.24662 4.15947 10.3759 -0.344447 9.76368 
11.0726 -1.64466 6.04706 10.3491 -2.27968 6.45448 8.83393 0.039753 3.62772 
7.87013 1.72819 1.12366 7.71842 0.0769252 0.553508 10.5066 1.40207 8.92421 
9.98132 4.26067 8.15767 9.49806 4.6237 10.0734 11.3338 4.80415 7.0281 
14.1757 5.36514 9.89951 11.7815 6.2289 7.35998 8.09963 7.80026 8.53408 
11.9754 9.45416 4.71867 13.0714 7.93828 10.6083 11.3638 5.95419 7.08456 
8.50555 10.3617 8.81242 8.03169 8.04357 6.41455 9.77213 2.59152 5.00336 
8.74275 3.96259 8.39645 11.9498 12.1877 9.50441 9.71507 9.90196 10.436 
9.69646 5.96825 5.13561 11.1596 7.74627 4.19288 8.4304 6.814 7.52084 
11.0471 8.34098 6.71071 11.4169 4.93621 8.85708 11.8575 8.7959 8.65621 
7.49561 7.11636 11.5239 10.6373 7.05155 10.5788 8.83604 3.58317 0.682852 
8.06084 4.80903 -1.53512 10.6435 5.49636 2.90628 10.8294 5.52412 -0.134546 
8.96483 3.78303 1.33527 12.0002 8.62972 1.08338 10.4471 6.4212 -1.02239 
[...]
CELL_DATA 2484
SCALARS scalars double
LOOKUP_TABLE default
8.8904309482 9.8639055506 -4.5460196856 -3.0063771641 7.6124688496 0.1433561945 8.5272164487 -9.7828942683 8.2790762909 
2.5585387621 5.4804588207 -3.4573369285 5.8183876218 6.6276984102 0.14194043748 -7.7514381588 -8.1662043513 9.207855002 
-2.2550086294 5.2490472114 1.4506650045 -1.0139873741 -6.0630146693 3.9558715979 1.3431343515 -1.2781146979 -9.6989859269 
9.9579117342 -2.5679304979 -4.1692217125 -5.3089051189 5.4141736865 -2.4892580159 8.4878979706 -6.979822129 -5.5965498341 
-3.2121608415 -2.1937686621 -5.8797018115 9.0005944718 7.1347584709 3.3155862348 0.99325931528 -2.5633341891 7.5726603797 
4.7392027923 -6.2044491459 3.1096184703 -7.4489471261 7.1648347952 -4.7616403026 8.7308408666 1.8604493986 -5.1643222359 
-4.0250409109 -5.0140142694 -7.3835963849 5.8964267096 4.9691594241 -3.7301268375 -0.61581189145 -1.7088763773 -3.2535777467 
9.4123259415 0.78384089151 1.3958522253 -0.84814484064 -8.4870686089 9.9844585879 -7.9487905854 -6.7503609281 -5.5359340888 
-8.9157752339 8.4473392068 -5.7306108389 1.339402866 3.8701996667 9.9310560741 6.0278368357 -5.3000056078 -4.0971948633 
-5.4740459543 7.7677904762 -8.9892687252 4.8674246244 -2.8938548164 3.6486850477 -0.38292342172 -2.705559603 -7.9072300511 
-4.2104189749 6.4195884454 -2.9659898368 3.5611655282 -6.1859994943 0.44264806141 -8.1041003991 9.2101454181 -9.2069582784 
7.4863186278 9.3096261212 -7.2796818503 -8.8759919021 -9.1781646498 -9.6723505408 9.8151415502 7.9728135425 3.0252658937 
-0.92381129802 6.7200051599 -8.6626467127 -7.8681158929 2.9039750575 -8.2821371992 9.054818299 9.6524131618 -8.7166948067 
9.6004480653 6.8152861373 9.7976740348 -9.9817087894 -8.4496664331 -5.5106344684 9.6463881472 9.4719682392 -2.2749394207 
-6.1632560931 8.8214009633 2.9977902528 5.7991741138 8.5156093836 -3.287284329 1.8841756982 -5.7587993506 3.6065554299 
-3.6967718856 -1.8486095878 -5.5943933453 5.8421373892 -6.4504845786 1.388435307 3.0554778012 4.3338266806 -6.9664862038 
-3.7853942121 -5.6547160578 -8.4514017393 -9.0023079405 4.0129856197 -3.6987848334 2.0246891432 0.94869394552 -2.2584769763 
3.1372588618 -7.2265134255 -9.8202601415 -0.092450551277 -5.6247483015 -8.7259063102 7.166407127 1.1861298959 8.8247176132 
8.9907213688 -2.6311485432 1.2853067223 -2.6008521398 9.207861483 -7.9454149183 -4.7657005698 2.9999605255 -7.5296721575 
-9.5088913441 -5.2973723863 2.1273106212 5.19857662 -5.3422712764 -7.0379553828 4.5420223699 9.2662344268 -8.0357430285 
-7.5215652452 -9.9996323877 8.3297036166 -5.1731206894 -2.7441452856 -3.6707108748 -7.693931424 9.7118495639 6.215952686 
6.6273195589 -7.6394528904 -8.8567267645 -8.8952640505 7.9642319204 8.9034771335 5.2365726088 5.3096202527 -6.572408139 
-2.1801913103 -1.5258173794 6.3608432465 -6.0108707325 -2.0303165037 -5.2907473769 1.5886396402 4.699472819 -8.5701158469 
1.0707016641 -5.4376587648 7.7661364563 0.10635471408 -8.6200642887 3.5631407797 4.3193580907 8.2568783857 -1.3335684509 
6.4530429192 -4.6388007632 1.8140771733 1.5407330322 3.570075882 6.2897139067 -2.1039681781 -1.0372422916 8.0826499205 
2.0777816572 -1.5709999869 -0.89571435417 -4.6138527046 -0.77751460449 -9.361103611 -8.5111967494 -2.1817810419 9.905102643 
-8.4848455238 -0.23570814433 8.0108978026 8.4724139677 -3.7061148353 2.5899294802 -0.43935589795 -6.0546699018 9.6526766184 
-4.4626075989 -4.247841225 0.87940987874 -0.3569367046 -3.3153199592 9.6600176429 -9.7270265274 -6.9430452558 8.6674309821 
-3.3458946164 8.9583765817 0.89285634019 6.1795295722 -1.8863532277 0.10122383357 -2.5948972052 1.7128704908 5.6811519756 
-4.1414117473 -0.93159629628 0.56054330064 9.8047569137 2.4527351554 -3.591348561 9.3821847341 -0.70534725523 0.61324606836 
9.5444193916 -7.3001289993 -2.4786300192 9.6554605579 -0.61580881547 -6.6119961853 7.8535393662 -7.5844733659 0.27458084649 
2.8742893587 -6.7958254486 -2.1064445968 -5.5166374666 -8.1778626252 0.36918009455 0.23581486265 9.9966937386 7.1096878261 
6.5978818244 -9.3256358175 2.4746504296 -9.8882973702 4.4760114921 9.786330503 7.0044134444 -2.7691823242 0.28483464484 
-2.6817161057 -4.7839355451 8.541995048 9.1299921498 8.7021330616 -7.9995304624 -6.6114649299 -2.2733532239 0.92987223116 
3.8212276468 4.3070426794 7.5641870802 -3.0723522673 -9.0466030331 -9.489792436 9.5675115397 9.4777076134 -5.3653259569 
-0.79503512292 -4.1286224617 1.5207511583 -2.4507218107 0.024808949955 7.0252168789 0.014242557198 -6.4705395389 7.9599989345 
-8.3562148529 8.2295097667 -1.9549593971 5.5203434042 -0.96274573146 -5.2698412404 7.4856270357 -0.40339715003 6.8157296095 
-8.806041084 -6.8294017658 3.839456599 -3.8295928341 -1.5345988615 -6.9183125303 -7.4476085119 -8.5757322822 -6.8928474495 
-9.160833323 -6.2523284926 -2.6010461369 2.0769032351 9.8668484956 6.4540111514 6.3727739161 9.6258080553 2.3341713626 
6.7017777667 2.3754212296 -3.5441170114 -6.2635466475 2.6185795722 -5.7472601083 -4.1050306335 7.6416518595 -0.76526759995 
-6.7132076762 6.8867156701 0.82405413345 -4.7076386663 -7.0484048993 -7.3948285017 -1.6912422158 -6.1121142424 -8.1528991358 
8.8959867218 9.9362322665 -3.2966657448 -1.0151531239 1.5546036523 -8.868195397 -7.1197758831 3.0536727285 9.7591419755 
-5.8513940421 7.8824189045 2.4923785849 -2.8299005687 4.1169685392 5.8919374438 -3.246554345 -1.8809882804 5.4251344797 
3.7610736194 -6.2123489401 -2.1454835387 -1.9669322418 5.8408577034 8.9927060668 8.2743285653 -5.8854124783 -7.5079596984 
6.2836699881 7.0854071103 -7.4069635938 5.6782032163 4.8238264269 -1.9945372829 8.9804891214 -7.5763559657 8.4578384434 
-8.4543321471 1.5820783754 7.7864689602 -0.63340072319 -1.5780006005 -7.6560568988 4.1873852175 9.4538428672 -4.3620532457 
-6.3460335375 -5.4070954014 5.2345156337 2.9279760857 -5.6107949719 -6.3376815684 -2.3301171868 0.98669304224 -4.5055053259 
-5.6261276357 -1.9786124056 -3.6375326208 1.3719823288 1.3497783597 0.51457505414 -5.4039704481 3.2026156634 -3.0043970418 
6.6339563141 -3.3615357071 7.171478802 -1.5013218977 -1.6594325656 7.4261918689 -6.6925061569 1.6039330712 9.7493049487 
1.07780592 9.6012087223 8.4763177531 9.8791247578 -9.867948179 -9.6881156264 0.20140916998 8.1895699544 -9.3885969389 
-6.2399040192 4.1972668404 9.5553642056 -5.4692453759 -6.6187636655 -1.6334605227 -3.2844439385 5.8815149464 3.7835461043 
-1.5523446033 -7.3122219088 -2.551294862 8.4777557518 -9.49231121 -2.6733785108 5.3203366016 -3.0021701814 7.246548075 
0.3042164342 6.665991593 -8.9228444216 4.2409049931 -9.1634962196 6.0011248496 1.0200595921 9.7082201131 -3.508862257 
0.80289526018 -3.2101700434 0.2371379919 0.8725920705 -9.8050850264 9.6457583449 5.8549703358 -0.87875158555 8.5612000864 
-7.3148970924 -8.3487448745 2.015256017 5.4411392344 0.2166429023 -2.4033225521 -0.32922236626 7.2165939622 -5.3033890954 
-1.2426094248 1.8166720339 -8.0284807143 5.3693221923 6.7279957447 -9.3499107214 -8.7306590038 9.0569401223 -2.851227741 
-7.7817765678 -9.7178093282 7.2419258013 9.279274924 0.90475799721 1.277191729 0.6015851811 -8.8042696703 -1.946439796 
-9.9234216735 -7.5076000123 8.0314818204 7.16079776 9.3897773578 -9.3738853863 9.5538380969 -8.8263360185 -0.52804690278 
-1.617530539 -5.2555823319 9.7218927269 -1.9594339806 6.6149494192 -5.8554164647 0.26990015265 -0.2543327925 1.7015298927 
-7.9286351042 -5.3060938592 2.4469954273 5.0359171553 -9.6391391504 5.6152766692 -1.7055044428 5.858577457 8.5417577683 
-0.21857138404 0.1628845693 -1.2949179768 3.6882959692 8.1060366489 2.0510225541 5.8220146342 -3.5025412781 -0.96926188072 
8.235230387 -1.9792922677 -8.9495913053 1.0313081551 7.8802308264 5.5633109645 3.6681010286 5.9345757458 -1.8187400087 
-7.2352620337 -1.4664234937 1.8004816793 -4.659918343 8.8141752841 8.819143224 5.0075562839 -2.7360032251 -2.1766487739 
6.1182755445 2.7245739467 -1.8701533702 -6.1123099616 -9.2462687106 9.7820157802 5.3439684754 -6.725325252 -4.2558190955 
7.6820010667 -9.5205145544 -1.1187506217 4.6309830895 8.9085612644 6.6410903341 -2.4686526073 -3.277704671 -6.2856625197 
-4.5930169651 5.8152679006 -4.6867677013 -5.0444906632 7.9333458286 -0.078291314273 -6.8795143632 5.9320550498 4.6996774866 
2.4557688998 -7.2413795575 -6.1182714271 4.6438689673 8.4901938448 -7.1833940454 -8.8759529368 2.8976011635 9.1551205761 
8.7377833883 2.7082786208 -2.6143783013 7.77965647 -3.1597139719 0.93353629982 4.3784845996 -9.9350305141 0.55000028095 
6.8263676068 -6.5911287735 -5.0013178582 4.6616389562 -4.7382586636 -0.30207019804 3.0036913555 -2.5130292717 -7.7940947165 
-9.5999049441 4.5573622444 -8.5752843446 0.9344142652 7.756168649 6.1192418339 4.8180233554 9.1404149767 3.663186245 
-5.4667718019 -9.4044972177 7.453521596 0.45381008472 -9.0233945207 -8.2210047988 -8.6050544996 -6.2465689851 5.5648862204 
6.4527221635 -9.0107838253 6.7954610149 -5.1292890979 9.7190502016 -7.2823313509 -4.0765197712 -9.1973845627 -2.5975840601 
-0.84678815063 1.5622577387 0.2065970655 -0.9186140433 -9.0393454795 7.1928414938 9.927042911 -9.2023730667 -6.2164272537 
7.7676446775 6.8956697556 6.1204062815 9.6259304189 0.15396539888 9.4983627707 -6.0284169366 8.5372746041 -9.9780974637 
9.2339421446 -9.7629345755 3.7161125012 6.9657512391 -9.4779514936 -7.0557096326 6.9330861128 -6.7331818366 1.5387759424 
-1.2842195358 -9.1101099256 -0.66580093839 -5.0043412598 -9.3340617492 4.0107577605 2.3891673054 3.1404824027 5.879803475 
-2.331005499 -6.2553769512 -1.2943911705 -0.92346067259 0.37210623609 5.6009086099 0.055329083696 -6.2455210445 9.5503971312 
9.9415197824 3.423629878 -9.9177514707 -9.7524833405 2.4165228581 8.2227229384 -2.4672189486 5.3351901974 0.3577570769 
-0.4198285517 -0.34691995059 9.9409645324 -3.816586975 -9.5564424953 -9.9806118028 -2.6381594102 6.8803565532 8.1347118515 
-3.6723925857 -7.7815635981 -5.5819102624 3.6064219311 3.2489311832 -7.6406231133 9.6067939702 5.7382313611 5.8227159063 
5.9642533327 -2.2094349205 7.9298123615 5.030727943 0.13069074519 -6.6454470652 0.69363868743 -3.7199973465 0.72887637676 
8.9730582256 7.1472864774 -0.77423752926 -9.2706202829 -5.8786372625 9.2024371238 -7.9669214707 -7.0564560581 3.6196581045 
-1.7301348744 -7.0694793061 -8.9179660587 1.0294709248 6.4571440456 6.4853825129 -8.0299550574 -4.7105475138 -3.3705896232 
7.441461601 8.1359954396 3.1858405528 3.592482662 1.4063804738 -9.0057631286 -3.7027788824 7.3143939195 6.5011140256 
-7.7460116351 1.9363864839 -6.7537729338 -5.6432871533 -9.1128803672 2.6911142497 6.7613117226 -1.6699995959 1.8845840816 
0.54005590144 4.7570548117 1.8850476373 7.2495881169 -0.19420093496 -0.72793647059 -6.3580214389 -9.486744867 2.8369147788 
4.6197335355 4.4444071599 -1.7092260322 -8.3731686542 -9.768336842 8.2865177632 -7.1720165199 5.9608606405 8.0042567897 
8.4853698231 4.0075908949 -8.9923390398 9.4664694776 8.9178685126 6.6168018903 -8.1268327438 2.3540752125 -7.1380010278 
5.0497286877 -7.4975871173 -6.7628930756 0.54612035673 -5.1991333542 -2.6788588979 9.9973971029 -7.2781781656 -7.0054865183 
1.6763002189 3.6372495178 -1.5359713779 9.0526578298 -3.7600515501 6.2742242546 2.1304555327 6.728191045 -9.3828658752 
-5.189924563 8.119329607 3.9333286161 -4.4731585992 9.6742315833 -9.6769573586 0.70625209876 -1.7829952544 -3.4827515919 
0.079089534517 -4.0178432237 0.65149269319 -2.3255626027 3.9164868905 2.899315767 0.51915396785 3.4657149807 -1.4377218493 
0.41309654693 -0.82501665156 -3.8113924694 3.3105979932 -1.4718151726 -2.6829364239 -9.3823333189 9.2235011233 7.4611383597 
-4.6996002572 -0.018052855788 2.3518615275 -4.9667225206 -3.7411536866 0.8897780382 6.5487739127 5.1772975322 2.1397555905 
-4.1562154619 5.1706773196 -9.6476487502 1.2689853231 3.4965327355 9.7011392668 3.2742288136 3.3407537777 0.58285038567 
-1.6635384212 -1.4720929157 -0.010661316131 5.1660261274 1.9252724781 -5.084058575 -2.4214708903 -0.7620567098 2.8047985924 
-6.0743803377 -3.7870588441 -6.0139560047 7.8757740832 -2.3141004044 -6.3702462734 -8.8436232859 6.6618780402 -3.2288717585 
-7.5952411134 -8.9482354725 -3.2503186906 4.8438927841 6.7984956784 -2.1872724049 1.3393496402 0.72472168062 -0.16638481105 
-3.5545233279 -3.2353899033 -2.9880265118 -4.2463738598 3.0945534362 -7.5567589102 -3.130012863 6.1432454058 7.2871239888 
-8.8235694479 4.7244894492 -5.3690186888 -1.8555362653 -8.2643397976 -7.6754331409 9.974370919 2.9093964092 8.9651197961 
8.5010916746 8.6770741127 2.8535947484 6.8282386256 -8.6960130266 0.15949075702 -2.33091846 -5.4625602986 2.3848206926 
-2.5898284525 2.3506702689 3.6471141095 -5.1704395953 -2.0264167042 4.6836258673 3.3141778855 -3.406734132 -0.61017191323 
6.7186585806 5.3999798457 -3.6309531844 -7.8102263754 -1.7523153893 -5.7463054954 -4.3269137095 -0.99799764568 8.0697970547 
-2.3354836502 -1.0969717693 0.3970580294 0.31560212612 -4.1624135343 1.2451954559 -4.135582568 -1.1450941298 -1.357799281 
-7.1173273105 -0.82851287882 -2.1666664046 0.82422243234 1.1387265557 8.2082613022 -6.0896983874 2.3702319345 3.9556199722 
0.31252724667 5.1999978945 0.1667896956 0.33399218207 -5.1621711402 1.4836769393 3.0948746314 2.9274946972 5.2310092918 
-4.840068465 -7.4957103668 -4.7203597344 -8.6260313712 -2.9746488867 -0.49982211123 9.6494224607 -2.4400043423 4.2102989177 
-6.2271702974 9.2614971539 -9.2782403992 -4.2314860669 0.17006548642 -2.1150263159 -1.5533292456 -6.6820485949 -9.3831866355 
-3.3874671316 3.4443600079 -4.5361055768 8.0127455847 -4.1065995436 -5.8627299487 2.0706048859 -9.6861271014 -1.0912444257 
3.4868855704 6.7800748399 -8.448339204 -3.8339834942 0.78746646683 -6.1740770144 -4.6266173934 -7.3308504629 -8.3082079276 
-5.086145967 1.4639352985 -4.9344616143 -2.0261880283 3.3727441793 5.3378828402 1.8350243587 -7.7217411758 2.6130791733 
-2.9464898416 3.9905664546 -5.0624817806 -1.9220112351 -1.7082615282 7.5479579252 0.17309314391 2.1700736082 -1.6054243345 
1.3564355055 -1.4449379136 0.69501327391 -2.5174736097 -0.17322398863 -7.5021533173 -2.0148145899 0.25729331984 2.7524503862 
-0.048923404439 -7.1570099312 2.9892861514 3.6631781647 7.1104026492 -2.8302966086 -3.4275741989 3.1756354189 5.9042007082 
-8.9550999181 -4.1094301415 -5.5016917581 7.0407535615 -1.0407628092 5.3910385472 -4.3786231888 -6.2301851064 3.5250716238 
-5.7108431815 7.5739755313 -5.8797467871 -0.073685617953 0.51438339918 0.96767326359 -0.096991493441 -5.0972823737 -4.0886898565 
-6.8357428067 4.5816106957 2.1124689411 -9.6581418054 -0.47023685846 3.9113030565 -4.2464986183 -8.2745829888 -0.5878608289 
2.7191638014 7.8078653897 6.5821629527 9.6172386563 -7.695868142 1.0658745933 -0.18959583508 7.869946434 0.62704832759 
-2.868089307 -3.8944419414 0.1626005077 -7.7724340727 4.060070078 0.59327819242 8.9456425645 -5.7536191802 0.49558204551 
8.0057017907 -7.1968094338 -7.5894592432 -0.47783977927 -0.20940536746 -9.422916876 -4.404401686 -9.1635301629 2.386556584 
0.2439481689 -1.3235416425 3.8083740076 -7.535513979 3.8777627491 0.59021570401 4.0231508761 -4.9445410972 2.9179488026 
-3.3299198954 9.5105875966 -5.3035411043 1.3497923635 2.0161915414 7.8806345578 -7.099226763 -5.2562662944 -6.4189781203 
4.2172523975 -5.0965139774 8.2013782447 8.9850791362 0.11727009077 -3.295841924 -2.6673100144 5.6134383296 -0.80107768794 
-8.1686297053 7.6425276461 -3.3499907745 3.659237525 -6.5779406889 1.1817302749 -2.4011800915 6.1595549486 -1.5211948281 
2.502882277 0.066914784977 -1.7008254297 -8.6914717419 -1.5835941601 -9.1743565912 -4.1887992056 -3.0427056399 -4.0096911995 
3.1230076148 -9.0203887851 -2.1778400072 -3.2581845359 -4.7752898893 4.4926814709 5.2730246015 -2.7835073423 7.4643588052 
-5.8977819601 0.49475274555 5.5410853839 3.5867113746 -6.2977707977 -7.0572846237 -4.0356269062 -3.9986967707 -7.0076761452 
-5.5008097445 5.7662238002 -1.1201385389 3.8234503762 4.1717272364 -7.2309554771 -4.8945174259 -9.7726046269 -6.0469560263 
-4.459935557 -9.9068274551 -9.869703147 -4.1582922887 5.9471791143 -7.4948713864 -3.2678905819 4.7711280192 -4.035848071 
-0.19625715982 3.6995641923 -7.8999715323 8.4110936328 -9.3057011694 6.8729449666 2.6516387355 -0.7259460622 -6.7704937663 
-2.8988302428 5.5827263099 6.0021038641 -7.1033289217 6.0453152625 4.6792492382 7.9735053995 -5.5840712647 5.1891327019 
3.9013359384 -8.6099317974 3.9230752676 3.4522985913 3.7666409529 -3.7573101169 1.4777177045 -3.3154594201 -3.6125632366 
-8.8017123806 3.7676887368 8.2171829042 -1.1055940797 -4.5984894633 0.73896385606 -2.7458140403 -7.7292003143 5.553531345 
-5.8162643952 -3.6882169215 2.5425400403 5.6015419124 2.8573986827 0.15102616955 9.7251445396 4.9176064509 -6.5991853151 
-5.036661376 0.42242274627 -0.082825551678 -5.0665084182 7.0880520904 -6.3793112442 -5.8108152759 -6.9379469464 -2.0526043219 
-5.8132702458 -6.8315993185 4.1549952919 -3.7823813647 3.6081926423 -0.2312393597 -2.0501059713 -8.884428649 -5.6696305033 
-0.27118700962 -1.045675848 -8.1339745641 -1.8683714653 8.628411583 3.0261636912 5.4511276056 -0.58141540741 -8.7906719584 
1.265959709 7.093542583 -6.4687119888 1.5967084056 0.69250164791 9.4114759684 -7.0598783717 5.8746461097 -6.5514816925 
6.242300382 7.8213462962 -4.4409903396 -7.6173417507 -4.4023888669 4.7864662957 6.2773090273 8.2757251954 9.5342644592 
5.4711232095 7.9014997983 9.2859185106 -1.7587241223 -4.7921616226 7.4630234788 5.4270107185 9.8747625682 -1.7700986617 
1.1805221505 -8.673452187 6.3004997132 -9.4237081407 -6.2356141054 -1.6406868756 -5.5766063602 -3.9665057696 7.4603711508 
-4.6466296948 2.9094233113 -2.3082046524 -3.0923535284 2.3151124017 -1.7491371797 -0.7154425369 -1.9468531205 1.7814067333 
9.5473974128 -2.0804999015 -4.8063411044 0.29174633086 -3.6376347873 -3.4741451556 -4.7704565697 1.4901610401 8.8844246409 
-4.0657453109 0.59092565721 0.7164548095 -5.0308879463 -7.5655931811 5.845195783 5.8930851877 -1.0520512247 -3.821942879 
7.8060415424 4.2310260257 5.0918338001 5.6671586454 -5.5429244732 2.7018096984 3.4489671981 -6.2192421392 -3.7299977872 
-7.0962218555 -4.3333814052 9.3623858035 -5.2044514991 8.1300314216 9.2096348805 -0.95621871307 3.4611866956 2.1555110716 
4.5603536208 3.2718928316 0.53743321371 7.2550455554 0.5917650961 0.35648356941 1.8787312199 1.5902690854 1.2167800895 
-0.86858453689 3.4027122362 3.2181168793 -6.6648705568 -9.581763366 0.012341124917 0.42143056405 5.0496898923 1.8055476387 
-6.5244748113 7.0217955749 -0.71050132201 -5.5440379852 4.5924493208 -4.4746749746 9.4996307461 -2.1115873834 8.2546068889 
1.6882597617 3.0080043407 9.1211798838 9.5761580961 -2.4788812657 -0.66736347488 5.6622357487 1.1193144951 5.8262212674 
1.5177165677 -0.42532834603 1.4194027513 8.2669595084 7.1193774995 3.9443807488 6.2342123984 -7.6017481355 9.21030288 
-6.6841806927 -4.5685840731 -6.6570835512 -0.97407071298 3.4186616773 2.0829847451 -0.15432989319 0.59434670275 5.9022228671 
6.7835005471 -8.767971871 -2.111501242 -1.3346046572 3.930968425 -4.879321262 7.6662695426 -5.7672019966 1.1534605781 
5.5445095395 -4.6632151542 7.5359659993 -8.3098827986 8.5292262862 -6.7679053676 8.0581710469 -0.45262259732 2.228944041 
3.5366827976 3.8890591655 6.3938126989 -9.7438386863 -1.4045299219 7.4035549445 0.64587350658 3.161466553 -6.7070531565 
3.2622786799 -5.4048852765 8.3253003137 0.65202508422 5.9526841222 6.933671606 -7.6747862927 -2.7238198856 -6.8856978209 
-5.3921407358 -1.4684898374 3.0141480845 -1.4712464803 -4.519836908 9.5376328478 2.3318122161 -1.8319399622 5.8192152169 
5.3275254395 -3.5872438592 -6.2729882817 2.7418136299 2.2854327987 -8.3802063793 1.8332591919 6.2940014235 9.0790507362 
4.8531996508 7.8626515634 -1.6053361686 8.2806185304 9.471204923 -9.0129360667 -6.6677329048 -6.1381214332 0.97530181653 
7.0038774833 -0.54873722525 -0.8299835024 0.32769950371 4.8639993462 -4.5113272478 -8.3355111973 -8.906250263 8.4721119059 
5.0867856193 -5.3172121961 9.8519359255 4.4566408286 0.80421324124 7.2955805444 -0.59719313842 -0.11169091638 7.8318755344 
6.9286705374 -8.0762227517 -9.0247089866 1.2345711436 -7.8733443199 7.2746657798 -1.3754291219 0.85049334189 -5.5262460766 