# vtk DataFile Version 5.1
vtk output
ASCII
DATASET POLYDATA
POINTS 1244 float
-2.88125 -2.71068 -1.72042 1.31438 1.16667 7.24307 0.831088 8.93785 1.53365 
2.65493 4.79758 8.86269 7.33124 0.754717 1.1659 8.80559 2.78372 8.31484 
8.87576 4.9622 0.445473 13.0575 11.3582 8.12904 -1.65152 -0.551518 5.87934 
-3.13822 -5.63098 -0.371766 -5.76396 -2.25193 3.00951 -2.71886 -5.34658 6.37075 
4.93765 2.42087 7.27972 -2.03144 -2.47995 1.12196 -4.98188 -5.16896 6.39278 
-4.62258 -2.44655 10.6659 0.198964 -0.419181 14.1686 1.24389 6.44048 1.16927 
-5.21064 1.16525 -5.44083 -1.42446 4.8402 -1.87983 -5.26088 3.78674 -5.2292 
2.29053 5.66867 1.97972 -5.44051 6.15008 -5.83394 -2.10399 3.73848 -2.37533 
-4.93364 8.01212 -6.56182 -3.30203 13.9845 -3.1809 -6.44515 11.7684 1.93164 
1.04306 9.38954 4.65144 -1.66209 4.9346 4.19351 -5.47558 4.16246 6.10396 
-8.34638 10.7258 4.29631 -5.19095 5.23908 4.52647 0.212314 8.34493 9.09251 
-6.20304 9.10983 11.06 -1.2134 11.2563 14.1582 -2.39111 4.03421 14.0781 
-6.54295 -1.14549 11.6638 -3.66117 1.78546 8.00869 -3.67689 5.337 4.68685 
-6.92442 6.91387 10.1687 -3.47224 7.11136 3.94117 -3.58531 8.09792 9.03942 
-5.1717 7.72993 14.2668 -4.74699 14.0808 11.2782 8.00392 -6.42576 2.2411 
9.63993 -2.03056 5.84802 7.78694 -5.5264 1.38695 5.40596 -6.68238 5.73396 
10.3935 -7.91719 3.89417 4.78302 -3.46208 4.01733 9.29946 -1.36516 6.55495 
11.7956 -5.6819 7.1516 12.7507 -5.03056 11.9789 14.78 4.42729 -3.10329 
12.2225 0.035309 -7.20176 7.36886 1.06345 -3.6588 4.98078 3.95862 -4.14251 
11.6067 6.35331 -6.43478 4.56038 6.53138 -5.06631 9.38364 8.06479 -2.24403 
15.4667 9.45174 -2.7565 10.6236 14.06 -5.37676 10.9146 10.445 -5.65245 
7.7648 9.90096 1.11379 5.09148 6.21277 3.20284 8.7451 9.79404 7.42274 
10.0313 10.585 -0.693166 9.54615 9.45261 6.56229 8.08824 7.94158 9.89719 
5.61766 6.09518 10.3696 6.42523 7.6972 3.37659 12.465 -2.30173 13.2189 
13.9941 6.21158 12.8148 8.90899 2.44091 8.43884 5.2751 -0.339708 5.41628 
4.38194 5.31292 3.57943 5.14835 10.1515 6.16782 8.32858 8.67224 8.84654 
11.5548 1.30135 10.7089 13.2634 8.56799 14.8919 4.13769 -5.05315 0.409557 
-2.22268 -3.75734 -1.26346 2.96212 -0.235668 -2.17973 6.43746 -3.46123 -5.47039 
7.19956 -7.52358 -1.08964 3.16135 -2.68932 -5.63846 8.70491 -0.0729953 -2.56855 
11.6411 -3.82652 -4.01006 15.0656 0.323782 -3.20661 -0.17241 -3.16092 15.7811 
1.95387 -6.7907 11.3782 4.61644 -1.3052 10.2851 4.71351 -3.93132 4.66465 
3.1946 -8.89429 9.67459 8.35828 -6.05469 10.7532 5.67884 -1.95741 8.58743 
10.2638 -0.601558 14.7246 11.9463 -6.05751 11.0135 1.80586 14.5026 -5.49238 
0.249455 9.50114 -6.04848 3.41203 10.3473 -1.22286 7.1787 6.27746 -4.67878 
5.30129 13.2377 -6.20955 4.80726 7.06607 -6.08737 6.04988 9.71959 0.420046 
7.23165 9.76312 -5.88971 12.6315 11.0365 -5.77531 -3.64792 6.28984 12.7769 
2.56649 11.6856 14.5687 2.43106 10.0563 7.90184 3.58458 5.5203 4.26899 
4.97138 3.04317 12.4486 5.43057 4.88425 5.23103 6.58572 10.3703 7.44489 
10.7356 10.5829 13.8155 5.5983 5.53646 13.2132 1.09244 -1.17944 4.23081 
1.02281 -2.59737 0.177376 3.97527 3.77476 1.1095 4.45658 8.06744 2.11752 
0.581502 9.39168 -2.73717 1.51003 2.54744 6.25148 -0.913551 7.32607 10.8489 
0.136535 3.02928 7.76555 0.302251 -2.09753 6.07479 -3.72155 4.17298 12.5371 
0.632085 -0.0268063 -0.83916 -2.96766 8.96995 7.35148 -2.02311 2.29395 -0.0729845 
-1.70077 -0.579745 6.42918 -3.1263 0.697917 8.06091 2.12213 -1.16949 7.04181 
-1.39957 1.25593 2.76733 2.95689 -0.800876 -0.407614 2.29338 0.888465 11.496 
-2.28635 4.90097 8.62841 1.2082 3.63855 7.52887 -2.04726 6.63222 5.47826 
-1.74419 5.69743 8.29812 0.839919 14.4965 8.3127 -4.24116 8.11641 4.8829 
-3.14316 9.00557 7.64598 -1.93068 2.44083 2.58815 -4.53606 3.21149 -0.593326 
-1.69317 4.78235 -1.44673 0.46361 5.55145 3.13717 5.77315 7.31661 4.28225 
-2.15154 9.69085 1.3785 -2.47004 7.93112 -0.19191 -0.617176 10.1083 0.0020919 
-2.33053 10.2002 3.59681 4.55449 7.76356 4.47747 -3.65553 8.27868 2.12473 
-2.74964 3.6933 8.83127 -2.31681 1.84648 7.10077 0.420732 2.45308 -1.30788 
-1.7421 0.725532 6.20731 0.934474 5.06109 -0.238537 2.07661 4.53358 3.68137 
1.31751 3.78631 0.253121 2.39034 5.31636 4.17526 -0.0922364 2.77499 2.39924 
3.50995 2.56368 5.57146 -2.20423 0.585932 11.6582 3.98389 1.15587 9.16781 
-2.66993 5.22725 2.508 -3.65049 4.14953 6.32514 1.26429 1.88531 4.30835 
-2.3263 -4.17871 10.3642 -3.64141 0.631469 5.96077 -2.85158 -1.03451 9.09772 
-4.88633 -0.716157 6.90631 -3.91202 -0.368365 -0.861576 -2.07565 2.91105 -0.697481 
3.48436 4.54903 11.036 -2.29919 4.31079 12.3434 -0.817739 7.19476 11.3409 
3.64406 5.97328 6.9868 3.09973 4.1211 11.2373 4.94474 7.79028 6.25369 
0.548682 6.76732 12.4726 -3.11071 10.2617 8.15519 -3.54294 5.32647 8.00273 
1.05166 7.27342 12.4841 -1.08641 11.6076 8.86333 1.89319 10.9845 6.97821 
3.70125 7.86869 3.58939 3.85553 5.74545 10.2777 2.7129 11.7082 12.4752 
-2.80849 7.92342 8.14499 -0.995085 8.5686 9.36811 0.550174 6.77837 3.16088 
-1.72267 2.36378 7.66716 -1.43158 10.7955 6.02863 2.16358 7.41478 4.29548 
3.30308 10.7167 7.37512 -2.15683 3.20175 11.3121 0.907885 8.30011 9.80078 
0.806584 5.70971 -2.92719 -4.63837 6.66234 -0.199603 1.03818 6.71173 6.70582 
1.18177 4.90993 -2.32781 -3.15351 7.81784 1.9795 5.86668 4.82399 4.96816 
4.34425 8.3404 1.53117 1.18364 8.21933 6.49405 -3.93362 8.05375 0.286701 
0.84132 8.93371 -1.85899 0.648118 10.6758 5.85963 -3.11551 8.08767 4.52493 
-4.89808 7.19706 -0.499658 2.67753 6.32183 0.336682 0.201745 4.73435 -0.0755982 
-0.296798 4.86463 4.11611 -4.37574 3.5291 1.8066 0.0177162 7.65376 2.62505 
-3.70311 7.20102 -0.649568 -0.976306 13.6355 0.765921 3.49182 11.0943 2.00829 
1.21142 8.76646 -0.195388 -0.122967 8.90375 0.211881 0.831556 5.1002 -2.25139 
-1.36027 11.3137 4.79623 2.91169 10.8019 3.03297 3.32397 6.25227 6.81762 
1.77021 11.2494 7.65842 3.47354 6.85353 5.15831 -1.16939 10.4237 4.52385 
0.558772 3.18021 3.03834 0.462892 9.43874 6.51049 0.196583 3.6165 3.41349 
-3.96021 9.02905 7.08494 -2.54953 5.30272 0.597958 2.23936 8.66593 5.82497 
-1.56412 10.6794 7.56088 0.0489487 5.56558 1.60724 2.83515 4.74601 4.27116 
-0.314675 9.47637 7.00333 -4.93796 4.44429 3.10143 3.95751 4.69184 7.0629 
-2.74342 9.3857 7.10431 -0.453874 10.1454 5.79133 -6.30902 6.17509 5.038 
-1.09024 3.33672 5.16191 -0.441126 7.35836 -0.783981 4.36592 5.6794 2.17477 
3.36176 0.488878 0.75726 -2.08974 5.36545 1.91778 4.19013 2.2955 5.24059 
0.0840417 7.57202 2.21528 0.869991 4.9398 6.64128 -2.86561 -1.10211 1.67873 
1.43845 0.361447 -3.26267 -0.218543 -0.60697 3.88457 -6.42068 0.213364 1.12966 
0.709433 -2.46045 2.22376 2.14262 5.61535 4.86986 6.73594 0.88876 3.59068 
-0.518366 4.72517 -0.578667 1.07265 -0.600013 1.04483 0.450862 -1.1664 5.86147 
-2.18335 5.15774 5.87712 -2.96131 -0.573527 5.01039 -2.48911 1.3257 -1.38998 
3.78207 1.06547 2.56871 -4.28736 4.99397 4.63427 -2.43133 5.63611 10.9113 
-4.86357 4.36667 5.78287 -0.328104 -0.0897943 9.5788 0.275562 6.7778 8.03402 
3.89304 3.54327 6.01047 -1.56222 6.26192 7.8922 0.769892 5.01678 9.41329 
4.75941 0.762103 7.47119 -1.35921 -1.87632 6.58533 -5.80857 0.571919 4.44409 
-0.719169 0.566558 0.556595 -0.746916 5.55358 6.26857 2.70579 0.995343 6.97134 
0.328042 2.98376 11.315 -0.500872 0.908894 8.18398 1.41607 -0.30125 11.7437 
2.72013 -3.19213 9.46806 0.424083 5.26871 10.4561 3.18284 4.04276 6.10927 
-3.52508 2.51201 6.64524 0.796616 -2.02428 2.76228 -0.140394 1.29973 6.96899 
-3.94306 5.71953 7.00882 -3.6226 -0.559238 2.95644 1.00732 0.731489 7.05896 
1.07961 1.53203 1.99276 2.35973 0.414327 8.34099 1.16551 5.76011 10.3954 
1.60263 4.41 3.00415 1.55843 6.41135 9.53183 -4.78066 5.54638 5.54015 
-3.05886 0.796062 3.42167 3.11221 3.49892 4.16361 -0.0826517 5.3328 1.86759 
-3.85407 3.44102 -0.831089 3.1498 1.79077 8.02478 -3.53324 3.52144 10.2862 
1.37879 7.99539 4.47276 10.3652 -2.2726 2.50935 12.5814 -1.42738 -0.125063 
13.9021 6.56979 1.59621 14.975 3.65493 3.40693 9.56782 8.51913 -2.72734 
9.84762 4.10693 10.8614 9.84393 6.87382 8.72569 14.1845 4.82968 6.47596 
14.0176 -2.39346 8.22502 6.46875 0.813594 11.5576 7.56343 1.58725 -0.319455 
9.29956 8.48516 7.35544 4.49328 1.99518 5.36651 10.8933 0.440771 3.73146 
5.82074 -0.63859 11.1107 7.30859 0.70553 3.78184 4.79371 -2.53089 2.4823 
10.1276 -0.491437 -2.67742 14.6305 3.26519 10.5481 10.4219 6.54118 6.96698 
8.58844 9.76395 8.54214 11.3008 8.4647 11.2072 8.33261 6.59834 12.4165 
9.55404 10.5104 6.56133 8.53575 3.01907 9.61227 6.93103 5.91309 2.73059 
8.15571 8.32803 0.936973 8.3253 4.5326 -2.34302 11.1266 7.30348 5.13874 
9.83928 7.03756 5.54301 6.25824 8.923 4.47892 7.537 4.62266 5.90547 
8.8339 8.37175 4.29469 10.538 12.4558 2.32983 11.3151 8.34269 3.5103 
12.6579 8.89004 3.52009 6.68174 6.01007 5.34531 9.1628 11.3293 2.80422 
13.8851 5.16552 3.15269 8.48361 2.6257 7.72951 9.32273 5.83997 1.84605 
6.9874 3.52943 -0.261202 14.1955 1.06449 4.19312 9.74272 4.11118 6.81238 
4.58344 0.612584 10.0453 7.24964 2.32689 11.451 11.3897 2.94713 3.45113 
4.49821 2.34759 10.2882 9.12031 4.5929 11.4461 5.8614 5.43214 7.52311 
12.4441 6.21676 3.38822 9.178 0.452263 3.85648 10.5456 -0.334661 9.74706 
11.8931 -2.64274 4.22991 11.5179 -3.68578 6.8692 7.96245 0.0294821 2.91238 
7.99231 1.84266 -0.330133 7.10379 -0.0553478 0.786552 10.8322 -0.334301 8.97157 
10.0846 4.15106 7.70318 9.10066 4.75628 10.3898 11.508 4.75869 5.99957 
15.3745 4.87793 10.346 12.5494 5.99405 6.56838 6.80649 8.89688 9.04956 
12.4884 10.9412 3.8028 13.6687 7.84555 11.2638 11.4429 5.43498 6.08045 
7.9534 11.1526 8.55677 6.45589 8.22887 5.89789 9.9259 1.84274 4.20462 
8.14402 2.46118 9.54735 11.6428 13.7866 10.243 9.07338 10.1819 10.4304 
9.92799 4.24436 3.68821 11.6949 8.67372 3.83869 6.92953 6.48508 7.6842 
11.5299 7.58682 6.13919 12.9251 4.27962 9.63206 12.8709 8.80507 8.8243 
6.01348 6.36796 12.5278 11.2147 7.69024 12.0784 8.18302 3.64802 0.927162 
6.90913 6.03099 -2.14553 11.1357 6.30916 4.80383 11.4304 5.80078 -0.341577 
8.99666 3.15701 1.79318 12.4681 10.5485 0.0259854 10.6947 6.0402 -2.05506 
[...]
CELL_DATA 2484
SCALARS scalars double
LOOKUP_TABLE default
9.4664155182 9.7497448409 -6.4800636351 0.88440949971 6.9377994468 -1.0798572215 8.5412270636 -9.8189408968 8.7642350202 
2.2062371813 7.5569434497 -2.3996765117 5.0136884013 7.790464526 -1.7129799879 -7.3569637597 -7.5918446321 9.3981408772 
-2.4159968096 5.0447247256 -0.65338290378 -1.1532590903 -8.0602613747 2.6430898912 0.11316288431 0.5146959101 -9.8898231925 
9.9083653357 -3.6055072211 -5.6492126549 -5.0797753997 7.2025231171 -1.71519692 8.7727187678 -7.3407146823 -4.0808029556 
-4.9006790914 -0.71657406124 -4.7313017636 8.5075618534 7.8930489117 2.3128540588 0.41223729037 -1.9342188468 5.8065314247 
4.2299031786 -7.0075375357 4.079393363 -5.905787972 5.2048578019 -5.3230666393 8.2830852044 1.8120361606 -3.8385995278 
-3.0210086075 -5.0507871403 -7.1037279301 4.856969887 5.1231042006 -1.399135229 -0.67176225495 -1.7308734877 -1.8908548338 
9.8794371043 1.5407930458 0.32495180776 -0.49725560443 -9.270982371 9.818223795 -5.2620984389 -7.481584893 -3.2593459144 
-9.4830379235 8.6793104866 -5.4762068986 1.2352736132 2.9280780764 9.7497250776 6.1102528925 -3.8770239212 -4.2497836231 
-6.2238864329 8.8443043912 -8.4936262352 3.9041904669 -3.1781776197 5.4557662439 -0.87497074004 -5.2269170762 -8.4268496295 
-5.32467025 5.556669031 -2.573755687 2.6696534846 -5.51901305 1.060675822 -6.7233330557 8.1941612206 -8.6933179481 
6.5375059184 8.6135249286 -5.3544011627 -8.882803573 -7.4182450809 -9.5322920863 9.4735305097 6.7254443913 3.2123283556 
0.32849632637 7.7619790038 -6.6343562634 -6.6939091871 1.7468254824 -8.6321551318 8.4720935059 9.3750931672 -8.2805742318 
9.5157095444 7.089396608 9.6612239525 -9.785317825 -7.2535136618 -5.2517690316 9.9362105206 8.0674942716 -0.79767593966 
-5.3055154226 9.584577307 4.1308742956 5.2365466822 9.3142419712 -3.0894732166 5.0335158572 -6.352792312 3.2722629668 
-2.989465599 -1.7853195221 -3.9729809154 5.6169530769 -6.5693058749 1.2104069909 5.8775426193 4.3246184338 -7.2428252691 
-0.88308763177 -3.6113524759 -7.595814687 -8.4544794347 3.2110446739 -2.0345374796 -0.081223437747 1.7584324243 -2.3257049956 
3.5807171028 -5.9009597791 -9.2791924375 0.24301899256 -5.5856820901 -7.8574912514 5.354112003 -0.97064039872 7.9657273811 
8.5222098526 -2.1329262334 0.54471158869 -3.2851466725 9.3761470213 -8.0480763584 -3.6753163129 3.047484363 -9.0647942071 
-7.4649490218 -6.3997928916 2.191280927 7.1340203295 -5.6628694466 -7.2819811961 5.6688530393 9.8387639951 -8.2096889421 
-9.0712075332 -9.9331672134 8.3234197326 -6.1574887846 -2.2173023804 -3.0007224766 -7.1047303771 9.6990343796 3.3788325343 
4.5974671828 -8.6445899051 -9.8861826242 -8.7292349637 8.6096363011 9.8159829713 4.4811218876 2.2097712968 -4.7731602678 
-1.6401938841 -0.97521786435 8.5572310257 -7.3991855448 -0.23246056307 -6.6176137274 2.0534472196 5.4828818887 -9.2998684217 
0.0012425938996 -5.3426291008 8.179888136 0.12696580261 -9.4167691362 2.9719592615 6.0910684284 8.2429548688 -1.5091101952 
6.9381253186 -5.0977974771 2.4105901015 1.3581726333 3.6909680703 5.0816966506 -0.90111921775 -1.2851097492 7.6273246738 
0.78007343362 -2.3943723508 -1.0896119806 -5.0599336374 -0.85334637859 -7.6197413737 -7.6380918488 1.8476432928 9.4743717722 
-6.5134959413 -1.6176798457 5.5841946876 6.239955089 -3.6793446091 2.3146580584 -2.3639280061 -6.8564258247 9.049996469 
-4.5076041957 -2.9555580002 1.5754810711 -1.0045531375 -2.9028429174 9.4528871261 -9.5437002627 -6.0216129386 7.593102125 
-2.7410812109 7.4055290165 0.37600850335 5.6520607526 -0.92364763824 -0.61246858298 -1.2101778262 1.7968257035 6.9484866381 
-3.0344590936 -0.97655275476 -0.63955121692 8.1285065567 1.7817476571 -3.4554407962 8.2334769244 -0.27078742538 -0.80058104348 
7.2687946294 -7.5002905657 -3.9187222514 9.5550232832 1.3781727382 -6.9490933758 7.5731158533 -7.4356161392 -0.06737500874 
2.6029269522 -5.1349985354 -2.625902704 -4.2729197077 -6.3938986112 1.0145293269 -0.21572803964 9.9678574472 6.2854117747 
7.1403189514 -9.5282582094 0.31046972469 -9.9484935441 5.2748741926 9.9227955262 6.8729958226 -1.0668762415 0.88105422119 
-2.3248011062 -2.9113251617 8.4517888156 9.038638641 9.0458894729 -8.3472374604 -6.462708821 -1.6357268689 0.46228724084 
4.5280822231 4.5658531702 8.3911045343 -3.8834281246 -9.5654424302 -9.5354464724 9.7104894071 9.5978019515 -5.2549592295 
-0.397156997 -1.6949949456 0.31753681173 -3.4559910809 -0.72125946782 7.4216669477 -0.78789816108 -4.8546498302 8.2126926831 
-6.6793065804 7.8110040928 -1.7187378223 7.076123537 -4.358033233 -5.2791210538 6.8901239988 -1.3050878502 6.2077681151 
-8.6980228467 -6.0364247675 2.8011293928 -2.0476298021 -2.3615533022 -6.5492292928 -7.6372478091 -8.4942209374 -7.4427769257 
-9.343786456 -6.7309033248 -1.8071730923 1.9353745535 9.6487573095 5.2453828051 5.5790751291 8.8667133403 2.6998256033 
5.2629427313 1.3868075078 -3.6335484558 -5.6397074074 2.4512597371 -6.4486592745 -4.0519668849 6.9929938206 -1.6723684567 
-3.8312150216 4.2906608912 1.7512158003 -3.7843720025 -6.4522475257 -7.8733916061 -4.7909633371 -6.449709654 -8.5534588208 
8.8471474915 9.952227481 -3.460253179 -0.37919761775 1.3872491676 -9.3057404386 -8.4224946384 4.1358100099 9.5607492644 
-7.3189369176 7.8273252114 1.4768298694 -2.109196365 5.070822895 4.2909667571 -2.8987029643 -1.361692919 4.5493936651 
2.5592425898 -5.6290063814 -3.2765202422 0.901575857 3.6955140233 7.2816356241 5.3511314141 -4.8055921631 -8.4274613063 
4.7490477544 5.8955001628 -7.8160082709 7.245064155 3.972107976 -2.8859817059 8.1742423835 -7.4900332826 7.4601621115 
-7.7901045859 3.2409894605 8.5176267614 2.2157371838 -3.2741314931 -7.9539512373 4.8547572119 9.7113568473 -5.387822567 
-5.3626356428 -5.0062339938 5.5553745002 4.9855150403 -4.1677437954 -8.0141018123 -3.9309921331 2.7290052363 -4.7190645881 
-4.7976797675 -2.2350099923 -4.9003942319 5.0490156266 1.8407698463 0.99519861847 -5.5141974004 2.467432551 -1.5887685263 
5.1788723451 -2.4649183885 7.7255243789 -2.2856300538 -0.62386910094 7.0346559438 -8.0848709981 1.5690754615 9.6926517823 
1.4673113104 9.5702899802 8.8880400512 9.8764553573 -9.9975949269 -9.57680399 1.7727417069 8.7748552517 -9.542363031 
-5.7782485298 3.6807431629 9.4953633639 -4.1870466529 -6.5564563364 -1.9151137234 -3.7102332162 5.9675456565 4.9962285576 
-1.262081022 -8.5032070312 -4.1192015622 8.7096383057 -9.1215486943 -1.2588172587 3.506158002 -1.2997608673 5.7784280934 
0.86010050508 4.415198658 -9.1009486431 7.5248168965 -9.2262574385 1.9433340907 5.3236147075 8.7080385934 -2.9347760788 
-0.3701546768 -6.4352468891 -6.5364031741 1.0712750271 -9.7276043692 9.5250552546 4.1275914979 -2.8352653395 9.4207418718 
-5.6445322952 -9.1965378432 3.5217937182 6.3625944258 1.151040255 -3.1370552665 1.5128582626 5.1829738539 -6.7172779766 
-0.64559569031 1.1490427423 -7.7466742748 4.3513700817 7.3879573314 -9.3225502758 -8.4659985123 8.4606749628 -3.8537670009 
-7.7695048691 -8.370370093 7.9878584366 8.5681478822 1.4313066666 6.1569151554 0.061933902447 -8.0110926308 -2.4688231832 
-7.9922514664 -7.4467568065 7.7100721314 6.2573532762 8.7000220102 -9.9577110727 9.0682802019 -7.0601391662 0.66391976294 
0.097446165549 -4.2103067074 9.5914925367 -0.92681711027 7.5804102097 -6.8841802734 -0.46859422499 0.44100895887 2.9313467742 
-7.9480185912 -4.8268352076 1.5411189065 5.940394012 -9.5022706204 5.073412056 -1.5121936801 4.4263428059 7.4945331627 
-1.0466461244 -2.3737437086 2.6065130393 -5.7957220491 7.5673108054 -3.3212421607 5.8838166763 -4.3788160235 -1.7692685723 
7.5984385213 -2.8437348688 -8.8297635235 1.9549674961 6.6073350952 7.6439419218 4.823121139 6.7547633717 -5.2751537052 
-6.4170255979 -2.2913893251 1.4210999252 -3.8575520809 8.2602517628 8.1681368655 4.5848439082 -5.4017202313 -3.1329100685 
6.9026657566 2.4372245879 -1.527682361 -6.2551531238 -9.5676154384 9.8499362726 7.1097360582 -7.7571040968 -6.1370346856 
8.3103443825 -9.4314435401 -4.119654444 4.4055253925 9.06362206 6.9210019396 -2.7845367815 -5.698025006 -6.936709945 
-6.1052761308 5.3395700781 -5.2542414195 -6.569858196 7.8639109254 -2.4328921441 -8.1377633155 5.3133211115 6.2363047811 
2.6760534286 -8.1174535582 -6.8244318036 4.6353858934 8.7975550272 -6.0864514891 -7.7839099054 4.704916953 8.9902256613 
8.0135970228 3.2186135857 -4.2514124154 7.9677143994 -3.6095755985 1.1671062464 4.2075447629 -9.59175306 -0.011862694924 
7.7706417896 -7.4220933291 -6.0268226036 6.1711415697 -5.5120415278 -1.4109367783 3.4890536242 -1.1526735156 -6.4122788939 
-9.2268090881 5.3616064344 -7.8673173681 1.1128294275 6.3668119336 6.8860247379 3.6405841678 8.5457743881 4.2763463176 
-4.7551894646 -9.5297328113 7.5058235796 1.8595576446 -9.1189209331 -7.2375503962 -8.4801008284 -6.4025781952 6.6971484668 
6.9086657113 -9.2375432081 5.90127879 -5.4191635787 9.5745777071 -3.3516632772 -1.8915820021 -9.9861794453 3.0703106169 
0.033977807663 2.0603423024 0.93225418059 -1.9712919669 -8.5583523883 6.1930591248 9.9236879535 -9.035134488 -6.4350080861 
8.2381323743 3.2451986124 7.4406016094 9.8291961284 -0.7231629035 9.044264237 -6.4148796768 8.5046675598 -9.9536887812 
9.3947520162 -9.6369068443 5.0917103519 6.3134128771 -9.4742384002 -6.6324856261 6.9359410087 -7.0093248387 1.5815321022 
-1.3802931569 -8.2358385151 0.0073914529414 -6.566635127 -8.619283701 5.1505570943 4.0826998706 5.3198833873 7.8327050394 
-3.8296284948 -5.7102148516 -2.0324714278 -1.8349324591 -0.44241750305 5.3799071348 -1.4384246297 -5.3367874126 9.3197605183 
9.8647051177 6.4275891487 -9.9888621978 -9.7020237122 2.4789242839 7.8958709084 -4.6838457816 6.5497536647 2.1720060063 
-1.6811717619 -2.4969368492 9.7793291437 -4.3059622339 -9.2808847827 -9.8660962553 -2.4947177169 7.0408393564 7.8737570789 
-5.0428210463 -6.6703671994 -4.8060740064 2.4050581004 2.1917401831 -7.4011518417 9.222336821 5.2650448049 6.0181069599 
5.3118439109 -3.2423349068 8.4743629513 5.746830536 3.6559262327 -8.8151741153 0.38912037988 -3.6399265072 -1.6491704745 
7.6294789188 6.8577897924 -2.3750192488 -8.8263273563 -4.0494545099 9.1052810428 -5.325734609 -8.1448638235 3.0582853476 
-1.1509327759 -6.6895106887 -9.0735446332 2.4747636214 7.1098725131 6.9525700983 -7.8407575198 -3.5113147399 -2.996642921 
6.664393187 7.6792845241 3.5165768835 5.1841927388 1.8631080473 -8.5844495647 -3.2614555421 7.2838032387 5.7962703343 
-6.9211749373 0.11297871258 -6.0545146802 -3.9171489332 -8.5375364272 2.1969254563 7.134982456 -1.7639111958 5.0845752463 
-3.2767248592 5.620763852 5.6786420128 6.2986343629 0.13775742485 0.21858187433 -5.8529965325 -9.7546362093 1.9380150489 
6.2360847309 4.3643651247 -2.8212914902 -8.53141293 -9.1333268178 7.7006626171 -7.5569937808 4.3187591066 7.2407626031 
8.0198775054 5.2945125346 -9.3451853076 9.4197911005 9.652110927 6.2522474425 -8.13991241 1.9430436447 -8.0862149699 
5.0285213905 -6.2722777174 -6.6679528435 -1.0367599636 -5.3234814494 -2.4464524539 9.8787824053 -6.5858005344 -6.4416121126 
3.3444697061 3.4772175298 0.4448514813 9.9912164188 -5.8611970652 3.7588513365 -0.96972006287 7.2247343241 -9.8968400719 
-6.2157284157 7.4245282684 4.1607927422 -4.515937819 9.8321872677 -9.9332487399 0.19530717626 -2.3331576282 -3.410632357 
-0.10244490701 -3.4889219158 1.4032414232 -1.7967551604 3.1759148618 3.2240700464 0.19591136092 3.0783356167 -2.2229710793 
0.68921507834 0.81980757117 -3.9001790868 -0.20896826443 -2.6093209607 -2.4061488809 -9.202113705 9.3783706595 7.1877348885 
-2.5026171854 -1.2421607075 4.9993073868 -6.2941540925 -4.7644892759 1.2281267567 6.6175542778 5.1519112684 1.0159584924 
-6.1949460316 4.9674430759 -9.5639575587 1.2976537838 3.7351667499 9.8610255264 5.7187281782 5.1940251325 0.13436337171 
-1.1168633163 -1.6609128246 1.3544765776 6.9794651446 2.1850198231 -5.0540507478 -2.5599821615 -2.665872517 3.3310555892 
-6.8483367004 -3.4797867346 -6.6079935461 8.4356002801 -4.6181478645 -7.3414173966 -9.3842411491 7.6274844218 -1.6191409086 
-8.0919848036 -7.3399135113 -0.57966663922 5.1186686852 6.2503868617 -3.9648105621 3.6933498277 2.4851443325 -0.86500815607 
-2.5264379469 -4.5837701574 -3.2564958881 -4.3083181766 3.4154115452 -8.2788602236 -2.1744469876 4.9165805476 7.3624435793 
-8.4415521302 4.5043737723 -4.7940243547 -0.34863304631 -9.0845669122 -7.3851553663 9.7463708274 2.3962222259 8.53196718 
9.5945952966 9.6381765537 1.281461968 7.9230397101 -8.5014650348 2.8015510874 -4.5470633917 -3.8910087354 2.4668408799 
-3.6349786908 1.624645673 5.2245134052 -4.2848948927 -4.0740324036 4.5286087093 4.1751088374 -2.2263099074 -2.6785316649 
7.312621129 8.3884259503 -5.9590573285 -9.0215936093 -1.4557022585 -4.6963314511 -2.1304352703 -1.2025570782 9.3364228415 
-0.54304673114 -0.13709597222 1.1832601689 0.8814624581 -4.2873669139 2.3898917448 -4.3001150372 0.5451283394 -2.7871399965 
-7.4610762056 -2.4101272631 -2.4401436344 2.4125583656 1.4973023214 7.9160267157 -6.8881154097 2.7848036797 3.4362006449 
1.4536842344 6.6871589453 -1.7592113468 -0.54861780045 -4.1137180075 1.1536207844 3.6154283921 3.8536678854 6.1617423869 
-2.8340390453 -7.4235881875 -6.1497585518 -9.1805997774 -1.4770374307 -0.15033881904 9.9918595757 -2.5223624521 4.6156318136 
-5.9736611645 9.6716781919 -9.5721806606 -2.4840523791 0.72284112712 -1.8770904267 -2.8856790594 -5.3440856544 -9.6380071231 
-4.2823546403 4.0830230056 -1.8929343922 8.4243930292 -3.4385095727 -7.0501267942 2.6830870268 -9.4628222141 -1.5126730084 
4.2627465642 6.9837074524 -8.6014682368 -2.603899188 1.7011673748 -4.1460269322 0.07733312666 -5.0496629007 -8.2841714772 
-2.6532244876 2.4639885941 -3.7087495012 -1.9234844525 4.5185369728 5.3492200505 3.2411942769 -8.1541824789 3.4120157875 
-5.2790810118 5.901650186 -7.6255647312 -4.4007600876 -1.657357628 8.2921760104 -1.1993209128 2.3977574372 -1.2918307209 
1.509447732 -1.683572047 0.39451355066 -1.093089461 0.95688515853 -7.3721439823 -1.242753708 0.27608758243 4.3860999083 
0.40416557762 -7.1880634764 4.1072377822 1.7614316665 6.9939032973 -3.7359660993 -3.1180866328 2.7911888483 4.8404808723 
-9.3946711523 -4.6960178448 -6.2383848618 7.0362692921 -1.4896002192 5.2504214549 -3.6569234324 -5.5531733392 2.1405605793 
-5.7641738266 7.8944020896 -5.2514373653 -0.49988590843 1.1543741472 1.4023902577 -0.61624958855 -3.9592849382 -4.7521922277 
-6.4559259828 4.7409978023 3.4532706142 -9.9239943932 -0.65292658219 4.7431200257 -3.7870517954 -9.2136841679 -0.43212543189 
3.5723151888 8.1586459302 6.4187347551 9.766022393 -7.2485186609 -0.60897150751 0.67492719365 7.2723319711 0.036175501573 
2.4834870374 -4.7539118403 1.9886036942 -6.8561731685 4.7960016971 1.8320928725 9.2141677874 -6.9818256166 0.74721270714 
6.5508362926 -6.5085407467 -7.41099842 0.78243982827 0.47638283428 -9.7461805979 -2.2542888934 -8.7663307389 2.2640299089 
-0.041143644369 -1.1436449249 6.5472445823 -5.8149143961 5.0435316824 -0.15757083546 6.4558646428 -5.7737967771 3.5330171578 
-2.7782671273 9.6359063282 -5.5703556608 3.6992008461 6.0313216042 8.5550266185 -7.4901295731 -3.4970257295 -6.7886022131 
4.4419760915 -5.0373391675 7.8073605794 9.0073951346 0.10990365053 -4.9975798592 -0.90206899228 6.7917183457 -2.1525298199 
-8.1150640657 8.1849316207 -4.183221782 4.3173818427 -5.8145720736 2.795054192 -1.1830802217 5.5117506679 -1.6972640971 
4.1308428868 -1.9091772854 -1.7278269755 -8.7143811583 -1.4412209373 -8.4856327137 -0.538384279 -4.2328311335 -5.6439780026 
4.1337013436 -9.1152528214 -2.0269616541 -3.6734770388 -6.5480118808 5.3364796868 4.4082827906 0.27294667199 7.5493501123 
-6.885927475 0.40867109866 6.1695099394 3.192803938 -5.0187571469 -7.3565098134 -4.0219947893 -3.0561715497 -6.7039117479 
-4.8691629062 6.2633162448 -1.0694549319 7.0546779976 4.8824302755 -8.8257566565 -5.8137526928 -9.8308812765 -6.6874107448 
-4.6515310983 -9.9348042335 -9.550694552 -6.2026372385 5.9056049277 -6.8803052503 -4.0304071695 5.6976872096 -7.0120848242 
-0.58148594508 4.700690775 -7.1089438125 8.6105691423 -9.2843580795 7.5538845189 2.604324532 -0.63437324734 -7.367452779 
-3.2163551279 6.4164795766 7.1965331504 -7.291435776 6.6997667313 4.7201053847 7.1986821326 -6.3935202122 3.4917060138 
3.8721901938 -7.3823122148 4.5253689411 4.5524468328 3.8934354576 -3.4015875206 1.702692922 -4.3057679896 -3.4330044583 
-9.1566551734 4.0990496841 8.9488883786 -0.23770511446 -5.6806773116 0.18999012699 -0.55765047478 -7.505948682 5.9428443389 
-4.4470118301 -3.9395599632 1.5726371958 6.1940428024 2.8025555376 0.32159273841 9.919124679 4.9578567492 -6.8693290544 
-5.7678255509 0.45638977918 1.7368423566 -5.137546666 7.5945167087 -6.7276948693 -5.5230396633 -7.4938075134 -2.7154475433 
-4.8839668662 -6.9654979609 5.1541046113 -1.680546261 4.7059878343 0.60695576997 -3.6725041035 -9.3545751815 -3.9419734566 
0.46222380412 0.19108182291 -7.9569619037 0.16434778711 8.0517147618 1.9337198217 6.0534587704 -0.84654320867 -8.9155413872 
1.3937318289 7.5329720209 -5.3374853057 1.206868584 0.71945070216 9.7319368722 -6.9227517146 4.4925439311 -5.2624259482 
6.8508949732 8.1694316237 -3.9919156019 -6.9898670331 -4.8395293827 2.7875508673 5.6243344518 7.6029977932 9.6689420206 
3.5002212652 8.0124482093 7.8433635455 -3.5466568866 -4.7166172312 5.9273747314 8.5761741223 9.6008349371 -3.2153993077 
2.760449176 -8.8027942776 7.6530910114 -9.6145990244 -7.1632252687 -0.68868919369 -3.2376108274 -4.7889134232 8.091919379 
-3.9383081755 1.8705087063 -3.3062243483 -4.2670586969 2.6194256094 -1.787811822 0.38865621616 -1.7223503926 2.0295727792 
9.784861794 -2.5425547103 -5.3591029437 0.21571737512 -4.2981135889 -2.2761926098 -4.4666713141 1.410604958 8.9396903412 
-3.1402487423 -0.099022516897 0.04544423473 -4.1891919462 -7.7230578945 5.4026860252 5.5817400093 -1.7687628274 -4.9370450865 
7.3747751606 4.8264466337 4.9261459216 6.8536384147 -5.6893827358 2.4361592231 3.1317710124 -5.0055202529 -3.9797138148 
-8.4137906464 -4.4077069127 9.1147158801 -6.1358233867 8.1441155263 9.6289232767 -0.89248702154 3.7128006122 1.1029389496 
3.6845910658 2.7894789597 2.3801792113 5.0030720746 0.029230258612 2.175510269 -0.33893371759 0.3660059617 1.3907192803 
-2.3028062508 2.0699380709 2.7448431178 -5.0850452238 -9.5861319995 1.3096945334 1.4505389692 3.4316047795 2.9332642751 
-7.6198411179 6.7553255128 -0.38847426256 -4.3340646144 4.1773337325 -4.1377625296 8.6305425455 -0.70618571884 7.8838649823 
-2.4758885579 0.70025470023 9.1525251002 9.4771701858 -3.2521996341 -3.8004939456 6.348123806 -2.5967528803 -0.35718805798 
-1.9132215611 -0.12309864731 2.9686844839 8.575601644 6.5155114791 3.7706030173 6.5238961901 -7.823776663 9.5710053666 
-6.17785745 -7.0868599969 -6.2375170449 -1.9224333265 1.3773958483 1.1225995832 -0.059992302092 -0.046582380579 5.2874171665 
7.9377411384 -9.5583686353 -3.6763256484 -1.9005921254 3.593677194 -4.1450341146 7.2035105387 -6.3318105126 -0.47502077255 
6.0024385279 -4.672190665 7.8358507753 -9.3207646529 8.7355356606 -7.8533594814 7.3220608063 -0.63128816868 -1.2742765425 
-0.77200448577 -1.4267933277 5.2181845017 -9.9456903078 -2.0634051004 7.2679402457 2.6041531289 1.1980021839 -5.9765079959 
3.4871522566 -1.8500389032 7.7812239988 -1.0988823861 7.3185738556 5.5536074783 -8.4025724261 -1.5398469816 -6.6685050562 
-7.2716851032 -0.66805607507 0.77964535321 -2.5643182846 -7.3207604611 9.642040955 1.0635974452 -2.263516886 4.3439587159 
5.4983193217 -5.6469363109 -8.1240560538 4.0743386703 -0.5051504163 -7.4231240334 0.40907140622 7.8888069653 9.0677025888 
3.810240818 8.5984817732 -0.8933709227 7.7359270116 9.3882912724 -9.2355364361 -6.0662677452 -5.0180385764 2.2802625078 
6.4656549487 0.024364157731 -0.90944319284 -1.6886530919 5.1408452955 -5.148836532 -8.8245078494 -8.3735038112 8.6990131359 
4.6057180078 -5.7551987952 9.5584569656 4.5447950776 0.6200338368 7.6387752119 -1.4671549568 -0.19678655386 8.4627754848 
6.9952303941 -8.9057943451 -9.5202574022 0.4452590063 -8.4840640955 7.5713709386 -0.43775123256 0.2307717726 -6.1387907375 