# vtk DataFile Version 5.1
vtk output
ASCII
DATASET POLYDATA
POINTS 1244 float
-2.98449 -2.76932 -1.93293 1.2607 1.27747 7.48418 0.934623 9.27052 1.64874 
2.6219 5.03002 8.9832 7.42156 0.853286 1.46894 8.72418 2.77186 8.33498 
8.95394 4.93334 0.337138 12.9372 11.3452 8.20651 -1.78698 -0.476088 6.12636 
-3.07182 -5.97693 -0.380641 -6.19755 -2.29644 2.9515 -2.75793 -5.61863 6.4919 
5.13927 2.31723 7.57088 -2.14437 -2.68518 0.774127 -5.34933 -5.21354 6.51485 
-5.08536 -2.57552 10.687 0.413071 -0.369141 14.3262 1.13483 6.51095 1.13181 
-5.42744 1.10186 -5.74704 -1.44777 5.05516 -1.92079 -5.49287 3.62836 -5.53031 
2.70883 5.72936 2.1838 -5.74157 6.26151 -6.10466 -2.00206 3.68973 -2.23417 
-5.13029 8.12722 -7.01145 -3.41541 13.8306 -3.1144 -6.86161 11.7283 1.85904 
1.33131 9.36204 4.94026 -1.8527 4.82811 4.06068 -5.55265 4.15775 6.29454 
-8.95804 10.643 4.07237 -5.39702 5.28987 4.50858 -0.0793256 8.2886 9.05071 
-6.34056 9.1487 11.3136 -1.1895 11.2342 14.2204 -2.31082 4.38099 14.4789 
-6.73428 -1.09277 11.7823 -4.00497 1.42237 7.59937 -3.69448 5.52174 4.55135 
-7.55144 7.0788 10.271 -3.60416 7.12525 3.75182 -3.64973 8.21875 9.00123 
-5.4472 7.70366 14.6503 -4.82503 14.4726 11.4816 8.01984 -6.25516 2.30943 
9.4643 -2.05927 6.17125 7.88142 -6.21383 1.13769 5.15157 -6.68203 5.98548 
10.3788 -8.29013 3.58826 4.57683 -3.63407 3.8658 9.41226 -1.3457 6.63942 
12.027 -6.0608 7.08001 12.6297 -5.48458 12.1409 15.0132 4.63511 -3.12673 
12.2562 -0.0824878 -7.58165 7.14803 0.671528 -3.88353 5.06652 4.14 -4.19583 
11.1774 6.19143 -6.71239 4.44643 6.35514 -5.33242 9.29451 8.22814 -2.29777 
15.7422 9.43092 -2.87629 10.7445 14.3342 -5.39447 10.8396 10.49 -5.52139 
7.71763 10.332 1.18174 4.69523 5.85556 3.33248 8.92776 9.88601 6.8591 
10.2994 10.8841 -0.968397 9.70637 9.65508 6.45733 8.16471 8.00662 10.3852 
5.49148 6.02595 10.5403 6.21056 7.59679 2.85036 12.6529 -2.89177 13.5467 
13.994 6.42938 12.8526 8.96695 2.30632 8.47644 4.8563 -0.883872 5.22461 
4.24513 5.23577 3.19533 4.84711 10.7096 5.96871 8.3267 8.65156 8.85058 
11.5919 0.997646 10.6546 13.7289 8.69902 15.5566 4.41602 -5.4739 0.53691 
-2.49792 -3.92727 -1.42899 2.78644 -0.498574 -2.16581 6.85093 -3.74807 -6.0181 
7.10133 -7.84644 -1.06047 2.85756 -2.75378 -5.66947 8.94568 0.324069 -2.68643 
11.5376 -3.97561 -4.00136 15.4877 0.613839 -3.28076 -0.181015 -3.29854 16.2322 
1.83614 -7.2567 11.223 4.41859 -1.27431 10.0316 4.84466 -4.29126 3.99466 
3.15745 -8.95095 9.63362 8.54046 -6.5814 10.9015 5.58737 -2.07357 8.77265 
10.1861 -0.763622 14.9384 12.0827 -6.16247 11.0506 1.93226 14.8112 -5.56866 
0.0695056 9.37792 -6.36972 3.45276 10.1834 -1.20827 7.61247 6.04395 -5.10251 
5.03486 13.527 -6.5212 4.88274 6.88717 -6.20723 5.94093 9.98397 0.870531 
7.30702 9.571 -6.07729 12.787 11.1062 -6.09892 -3.9751 5.8131 12.7356 
2.69321 11.6965 14.4625 2.39016 10.224 7.9129 3.55403 5.41505 4.02773 
5.02675 3.02041 12.53 5.32744 4.37624 4.59575 6.25158 10.621 7.5913 
10.8679 10.3905 14.0748 5.47345 5.51674 13.4036 1.17356 -1.0598 4.2264 
1.08923 -2.50859 0.0121318 4.28339 3.40838 1.02046 4.48396 8.13737 1.92583 
0.734309 9.54912 -2.9715 1.48609 2.41767 6.0301 -0.875727 7.20433 10.8861 
0.225245 2.94745 7.81747 0.348504 -2.09354 6.22524 -4.00675 4.34434 12.7112 
0.762792 -0.149689 -0.745624 -3.25241 8.93021 7.27576 -2.0719 2.27617 -0.365608 
-2.00585 -1.16867 6.61375 -3.22523 0.628434 7.65427 2.74635 -1.23668 7.10512 
-1.38894 1.36835 2.65874 2.83282 -0.678431 -0.549351 2.28587 0.858893 11.3138 
-2.31143 4.47524 8.58066 1.27563 3.57106 7.26103 -2.11973 6.60682 5.5105 
-1.77629 5.83485 8.25078 0.970792 14.3959 8.53906 -4.70567 8.02454 4.41978 
-3.28737 9.03088 7.69254 -2.0248 2.21209 2.73883 -4.90775 3.03618 -0.512973 
-1.71522 4.36345 -1.76754 0.634835 5.41804 3.41257 5.95144 7.49464 4.28287 
-2.1354 9.7379 1.33286 -2.63344 7.98287 -0.278233 -0.571843 10.1129 -0.104008 
-2.42366 10.3189 3.65413 4.72692 7.48921 4.29663 -3.94539 8.58907 1.82885 
-2.75899 3.4294 9.11212 -2.63311 1.51834 7.12397 0.559069 2.4594 -1.67771 
-1.81728 0.601276 6.26741 0.742292 5.12527 -0.0660666 2.35003 4.97117 3.79876 
1.36883 3.95314 -0.25013 2.3666 5.23884 4.19641 -0.378899 2.53756 1.78715 
3.21804 2.69493 5.763 -2.34657 0.412119 11.8858 4.67764 1.12268 9.15788 
-2.7644 5.3751 2.42862 -3.63122 4.12061 6.42513 1.47398 1.77147 4.24994 
-2.62022 -4.43839 10.4026 -4.47126 0.966253 5.49682 -3.09216 -1.17638 9.32452 
-5.05218 -0.802193 7.17207 -4.25545 -0.273995 -1.28039 -1.943 2.72008 -0.604465 
3.9488 4.81502 11.3472 -2.53376 4.01411 12.4192 -0.93219 7.53503 11.4818 
3.44351 5.84742 7.06908 3.37733 4.06643 11.1801 5.28502 7.68326 6.12056 
0.472238 6.743 12.9401 -3.09894 10.239 8.19786 -3.62359 5.24432 8.12813 
1.07247 7.22735 12.8876 -1.21077 11.6849 8.68572 1.921 11.3017 6.88542 
3.80409 7.74015 3.36457 4.22798 5.57062 10.5262 2.67689 12.0758 12.5745 
-3.034 7.71735 7.95124 -1.14985 8.54291 9.5807 0.544539 6.65665 2.8845 
-1.45957 2.12182 7.70641 -1.48965 10.9265 5.88425 2.15841 7.36505 4.13374 
3.53896 10.7891 7.23111 -2.40965 2.80507 11.2148 0.944489 8.66594 9.8124 
0.850967 5.83344 -3.2186 -4.87746 6.91539 -0.166397 0.913783 6.93816 6.81654 
1.39191 4.98697 -2.31371 -2.98186 7.84047 1.87378 5.90004 4.72268 4.84677 
4.42454 8.78675 1.69124 1.43327 8.23382 6.23745 -3.53496 7.91642 0.345995 
0.988766 9.06961 -1.72723 0.563232 10.6845 6.11687 -3.72216 8.14765 4.99194 
-5.24828 7.19643 -0.510326 2.85651 5.90377 0.281806 0.365889 4.6139 -0.228893 
-0.286241 4.77441 4.13545 -4.53681 3.01273 1.70594 -0.00134464 7.70955 2.87365 
-3.83475 7.25371 -0.647068 -0.882054 14.1002 0.693533 3.68887 11.1572 2.2174 
1.37445 8.84831 -0.607783 -0.356666 8.79319 0.0633394 1.11641 4.957 -2.55803 
-1.37528 11.3287 4.77198 3.15228 10.836 2.73965 3.47074 6.05686 7.06764 
1.93072 11.5918 7.85003 3.52026 6.52321 5.30461 -1.35938 10.7589 4.62778 
0.259032 3.29136 3.18833 0.685442 9.48749 6.63426 0.101612 3.5833 3.64225 
-4.39708 8.88196 7.30993 -2.59966 5.35547 0.641281 2.76749 9.05382 5.91006 
-1.6967 10.6134 7.65151 0.149076 5.45165 1.24045 2.8013 4.48552 4.14225 
-0.457742 10.0397 7.14707 -4.75592 4.40558 3.19547 4.00271 4.63321 6.88934 
-2.79755 9.55937 7.02197 -0.592174 10.4389 5.81291 -6.77961 6.18131 4.93624 
-1.13569 2.99673 5.11967 -0.548499 7.42402 -0.638399 4.54535 5.75044 1.99015 
3.41986 0.410161 0.73109 -2.13559 5.45719 2.00868 4.47793 2.0961 5.38705 
0.130714 7.52309 2.07791 0.751585 5.12087 7.12801 -3.06294 -1.16038 1.70109 
1.58633 0.184096 -3.59954 -0.108487 -0.55919 4.10299 -7.1381 0.211101 0.940918 
0.699332 -2.41025 2.1956 2.11445 5.63416 4.89593 6.9594 0.735707 3.6877 
-0.512781 4.49435 -0.511897 1.18744 -0.753744 0.883361 0.51245 -1.32739 5.9035 
-2.04192 5.24185 5.86335 -3.09422 -0.515724 4.93671 -2.68242 1.09303 -1.36094 
4.34605 0.94495 2.6041 -4.60305 4.96231 4.46912 -2.44784 5.63945 10.9422 
-5.01535 4.2258 5.71673 -0.334999 -0.0633596 9.49454 0.415801 7.04195 8.26528 
3.79908 3.41023 6.12258 -1.64497 6.39166 7.79989 1.02871 5.24073 9.57259 
4.49272 0.88496 7.48312 -1.32123 -2.1604 6.40661 -6.11711 0.734407 4.40831 
-0.721737 0.735207 0.393688 -0.67042 5.37835 6.16541 3.18683 0.941644 6.79156 
0.238347 3.05741 11.2335 -0.640038 0.680871 7.83798 1.48886 -0.453701 11.747 
2.57477 -3.00409 9.93549 0.199785 5.4472 10.6091 3.26006 4.28378 5.92739 
-3.67159 2.61978 6.60154 0.980046 -2.64211 2.59158 -0.132885 1.30596 7.01928 
-3.90984 5.69992 6.96035 -3.69656 -0.702098 2.89829 1.05624 0.480511 7.06783 
0.961827 1.52219 1.55668 2.34715 0.224477 8.3913 1.2683 5.88505 10.4852 
1.71887 4.48024 2.67118 1.57519 6.58344 9.73779 -4.95665 5.67674 5.63211 
-3.26726 0.589059 3.39286 2.96835 3.53563 4.1777 -0.0641955 5.34518 1.61265 
-4.19168 3.31775 -1.1707 3.46659 1.23124 8.4914 -3.60108 3.61984 10.5028 
1.47231 8.61064 4.41387 10.4258 -2.331 2.14224 12.8198 -1.55491 -0.151728 
14.3365 6.55568 1.52006 15.0572 3.75098 3.51868 9.46098 8.36583 -2.96326 
9.99076 3.8896 11.0155 9.96441 6.86348 8.64808 14.4899 4.81412 6.61269 
14.3761 -2.53361 8.21562 6.62467 0.972221 11.5111 7.15618 1.22176 -0.291255 
9.27959 8.62276 7.47871 4.40889 2.03939 5.23156 10.8519 0.18687 3.59613 
5.68963 -0.647349 11.0559 7.21626 0.709067 3.70497 4.45689 -2.63592 2.44667 
10.2587 -0.552455 -2.93136 14.9439 3.1238 10.4704 10.3759 6.61912 6.88714 
8.26483 10.0372 8.40215 11.7162 8.74764 11.6861 8.32952 6.62782 12.5428 
9.52427 10.5001 6.43079 8.59006 2.39685 9.5277 7.06839 5.80176 2.4841 
8.29913 8.22323 1.03567 8.31279 4.36986 -2.47008 11.174 7.44607 5.3412 
9.67577 6.84889 5.37417 6.13309 9.05373 4.63241 7.27886 4.20345 6.31727 
9.0682 8.22918 4.40805 10.4913 12.4273 2.17491 11.2709 8.24502 3.52591 
12.7526 8.89403 3.50901 5.99214 5.93645 5.57267 9.24682 11.5981 2.63978 
14.1597 5.11413 2.83004 8.51266 2.49982 7.94103 9.14345 6.06246 2.06827 
6.85539 3.46243 -0.351927 14.7535 0.863738 4.17046 9.62498 4.39963 7.12015 
4.28134 0.245483 10.3333 6.97324 2.36719 11.7001 11.4996 3.09652 3.31625 
4.32752 2.39445 10.2011 9.03704 4.36028 11.5685 6.10979 5.25415 7.3435 
12.4456 6.3224 3.21584 9.24249 0.315196 3.84111 10.6115 -0.248381 9.87257 
12.0954 -2.61011 3.80071 11.606 -3.90511 6.93253 7.72141 -0.0142375 2.89824 
7.81633 1.90302 -0.729928 6.93112 -0.238437 1.01664 10.7556 -0.901445 8.99444 
10.0756 4.1069 7.62151 8.71316 4.80512 10.606 11.5095 4.79502 5.49715 
15.3858 4.79359 10.2636 12.4547 5.97452 6.3341 6.60489 9.0034 8.95107 
12.4466 10.98 3.61116 13.4279 7.70037 11.3578 11.6703 5.19517 5.80914 
7.59086 11.3245 8.44046 6.2546 8.21802 5.73787 9.8282 1.71529 3.92893 
8.21203 2.35829 9.73334 11.6492 13.9527 10.098 9.08665 10.2737 10.335 
9.75793 3.99532 3.47918 11.8469 8.70387 3.76749 6.45398 6.59982 7.88278 
11.3996 7.55587 6.28138 13.2517 4.01632 9.61105 13.089 9.04313 9.05733 
6.17935 6.2845 12.782 11.2409 7.61336 12.1342 7.96044 3.65299 0.970499 
6.5679 6.44753 -2.3185 10.9913 6.52192 5.4824 11.9381 5.90279 -0.391096 
9.11757 3.30473 1.78097 12.5058 10.6667 -0.0837901 10.5782 6.02147 -2.56301 
[...]
CELL_DATA 2484
SCALARS scalars double
LOOKUP_TABLE default
9.4789858146 9.6735543349 -6.7384790848 1.6421597742 7.3988744671 -1.8258896101 8.8444329209 -9.8199386257 8.8516016107 
1.3678619357 8.062969785 -2.3573790492 5.0280919926 7.9403840973 -2.5092359378 -6.9485754429 -7.6492242032 9.3295947879 
-2.5586350045 5.0860306568 -1.1490775492 -1.3817803605 -8.3795477943 2.7888810172 -0.52871865883 -0.80722835116 -9.8935257415 
9.7589842269 -3.3682593474 -5.3950444662 -4.4615243399 7.2573678933 -1.1829863893 8.6701998226 -6.6354772755 -3.3304937447 
-5.3074374753 -0.26697522841 -4.4975160205 8.6008445849 8.2658035569 2.3569621913 0.44703037547 -2.2163652329 5.4334416978 
4.1997942199 -7.1981844378 4.1078130446 -5.8478788171 5.0742466697 -5.4983167565 8.2895361535 1.8746113215 -3.9679297956 
-2.81828823 -5.0188426793 -7.2153983825 5.163595111 5.055724574 -1.7580881663 -1.276821453 -2.1610255535 -1.2672133336 
9.8641741088 1.8513106725 -0.23529240743 -0.043294106174 -9.3081118986 9.8331737607 -5.7423954027 -7.7280410003 -3.5874217441 
-9.5463252391 8.7824021891 -5.8216722927 0.9766003831 2.7508567674 9.6965026361 6.3056323971 -4.771638246 -4.4564212586 
-6.0350047262 8.8700215809 -7.9589939443 3.3193577658 -3.4040678239 5.8025001939 -0.5264473778 -5.0660106591 -8.0811453895 
-4.5863017205 5.2427219694 -2.6741377398 2.0946495431 -4.9867952887 1.0122931388 -6.5064408471 8.015301505 -8.530084889 
6.234731022 8.4257707997 -5.2929182843 -8.9158339295 -7.4773871555 -9.5094567876 9.4781682709 6.4721003214 3.5096377307 
-0.25360011065 7.4139667092 -5.9231837886 -6.0643365473 2.6994093579 -8.7969596506 8.7234147731 9.2094472584 -8.5696553944 
9.1958923246 6.7704317409 9.6106161364 -9.7845148942 -6.7549556163 -4.9503832482 9.9339827629 7.8445075703 -0.8862777893 
-4.8369078164 9.3672522867 4.7259127876 4.7398224145 8.914032589 -3.0924144011 5.6759394807 -6.6976468279 3.2906094948 
-2.9925615399 -1.7074689739 -3.8238191085 5.6036782164 -6.3658001006 1.3930992693 6.3319814192 4.4747279897 -6.6368212667 
-1.1322876632 -3.6893776511 -7.7316757808 -8.7201990826 3.3273773318 -1.9580200893 0.78759070167 1.8943730824 -2.0916521137 
4.0785953434 -6.298021615 -9.3820933738 0.16155246947 -6.1508317155 -7.1725399521 5.3314872687 -1.2470077114 7.8073435036 
8.5533430604 -3.2756771634 0.63985606795 -4.0830482967 9.3977815365 -8.1802562638 -3.6183561934 3.1949766507 -9.1041349824 
-7.1031734541 -6.7224591629 2.4558469342 7.1378906668 -5.0813051247 -7.4452615732 5.054941849 9.7768857189 -8.2678086518 
-9.113317275 -9.8970873568 8.0722818061 -5.4095340298 -2.0035282834 -2.7763935455 -6.9993251417 9.5331263693 2.8522265097 
4.4208609547 -8.8142293336 -9.9780904803 -8.6798060046 8.6473069573 9.8996181106 4.5697423859 1.2687019154 -4.8780839473 
-1.8165614526 -0.7227466715 8.6361676434 -7.6007286135 -0.11075163828 -6.5091876556 2.0076446732 5.1854806354 -9.3425612672 
-0.13273836259 -5.2421691244 8.0779638551 -0.1332179012 -9.427922902 2.3971601963 5.9663153358 8.2427206957 -1.5508536484 
6.704182004 -4.9451749668 2.4345290912 1.4318308499 3.3846795926 5.1080307181 -0.65553715662 -1.0030367541 7.4879386681 
0.45643648247 -2.1019953432 -1.0627169537 -4.9025340481 -0.86568511003 -7.5316992719 -7.270906647 2.8391457219 9.5015569852 
-6.5538271645 -1.9303461303 5.3948119363 6.2051619622 -3.8890137304 2.9182836881 -2.7582009309 -6.9296758274 9.2562647067 
-4.3597380571 -2.7211465827 1.6716762765 -0.98127323822 -2.9152208665 9.5036464642 -9.5954333502 -5.9506029162 7.7223108192 
-2.1764238304 7.6928810077 -0.12301613838 5.8398091599 -0.87215019772 -0.74986360832 -0.84721693158 1.7973610553 7.0474413163 
-3.058977191 -1.175921914 -0.21004094303 7.9410354411 1.3054608788 -3.3354730166 8.0827633408 -0.16936002522 -0.95274459012 
6.9831748525 -7.6011465794 -3.7604196197 9.5685455822 1.0708286455 -6.9669258693 7.4517912224 -7.6366262625 -0.10144861227 
2.7473267574 -4.7126518683 -3.0779681978 -3.8446833009 -6.2558469569 1.1624978663 -0.30411735576 9.9767559304 6.0888338808 
7.1187366939 -9.6429139048 1.1994749041 -9.9503372446 5.1135946053 9.9351668805 6.9212184571 -0.67870783503 1.1243892414 
-1.9866309454 -3.8688783435 8.2867984356 9.2082019449 8.7981977154 -8.3556695349 -6.3347550639 -1.5539508489 0.28995882621 
4.2412365732 4.6839685566 8.222284065 -4.0435178077 -9.5932475789 -9.4572905748 9.6739878914 9.489755699 -5.5454200004 
-0.3128995993 -0.2798857789 -0.057910731991 -3.9667354829 -0.77004624359 6.7786332841 -0.83995590167 -4.6818013832 8.0714572202 
-6.7838315254 7.6867346566 -2.1222696673 7.2807329527 -4.7146443086 -5.0335153955 6.6834736928 -3.0219647459 6.8741904681 
-8.7514518431 -6.0464924967 2.7012196846 -1.6009627555 -2.6664042093 -7.1135362851 -7.5668176506 -8.4550680785 -7.4375230077 
-9.2451880145 -6.9711828556 -1.7503053102 2.2252202375 9.5140835537 4.9236561994 6.3279000657 8.8838673809 2.716181557 
5.0477670472 1.4582330776 -3.6055458522 -5.7226934871 1.7469892725 -6.4624667122 -3.8411041971 6.9153212643 -1.5906579854 
-3.5310847112 4.0311614712 1.6649949348 -3.7573412081 -5.8800423249 -7.5116988258 -4.587609874 -6.3992759173 -8.4442194214 
8.8743788785 9.9300763099 -3.388260652 -0.036635442862 1.1452143369 -9.2433119587 -8.1476970529 4.38836952 9.5770041902 
-7.2581064146 7.7498825029 1.2822954065 -1.7835466531 5.3043751407 4.1859268235 -3.0258370889 -1.4588679331 4.0400952099 
2.8512457661 -5.3940472881 -2.3546778277 1.8934323949 3.3074041419 7.1316769825 5.0967187587 -4.5438083103 -8.5775451467 
4.9272599867 6.0571290294 -7.8962125616 6.0157131812 3.3665320629 -3.1977470488 8.1897104786 -7.4078043514 7.2301777869 
-7.6549625641 3.3856442594 8.2139877307 1.9245825839 -3.4642367743 -7.6723690981 4.6897915843 9.4927813147 -5.2381866742 
-5.4550323592 -4.8903102541 5.0156671765 4.4729646827 -4.0884783503 -8.1779472472 -3.8454026983 2.622317774 -4.9884108942 
-4.5620997167 -2.101654863 -5.1538952566 5.2258770053 1.9529367074 0.52130590523 -5.7477122005 2.6604808473 -1.3164957236 
5.430720289 -2.4538608432 7.9310217669 -2.1991113099 -0.70806294639 6.8847426898 -8.17394684 1.7311842018 9.1866894231 
1.5604971757 9.5506674986 8.9414674577 9.8167376402 -9.9999803699 -9.6046303253 2.0815040401 8.90740571 -9.5884520331 
-6.018019551 3.5642669984 9.6200533147 -4.0304752061 -6.6192054053 -2.5884902064 -4.2089398771 6.1962328385 5.0564683772 
-1.4337196277 -8.6603925655 -4.2926400519 8.721491376 -9.1643156472 -1.5554068531 3.2967079957 -1.1808256261 5.6798802403 
0.72415447687 4.5557489799 -9.1405788228 7.6640996552 -9.3614357077 2.015736314 5.2178123334 8.6140271947 -3.3052633565 
-1.3742460226 -6.7590661877 -7.3795831524 1.5264272881 -9.751472051 9.2777242083 3.6733858913 -2.2513680788 9.432256411 
-5.4257682717 -9.3728171953 3.3466239125 6.6248708039 1.1987404107 -2.6230734506 1.0898561941 4.408890119 -6.0334586802 
-0.28162319967 0.90625159323 -7.6451417454 4.2723573875 7.3224977966 -9.2786564035 -8.4963124802 8.4618577257 -3.7452174361 
-7.5996285643 -8.1701499397 7.8234894717 8.4219990032 1.6132704111 5.0765186381 -0.6050868719 -7.2106066912 -1.5490359769 
-8.435792728 -7.6378487283 8.0544662734 6.4635918515 8.8224827239 -9.9546904067 8.9680526728 -7.8139405648 -0.33282617472 
0.59915253835 -4.3532382939 9.589623955 -1.1977773608 7.9630215009 -7.0295463117 -0.65561239667 0.61649912338 2.2295528773 
-7.7905406446 -4.1192292025 1.7591013603 5.8240288307 -9.4985379756 5.2576761562 -1.6460511283 3.6831107551 7.2163881317 
-0.97608460213 -2.2548175626 2.8770162596 -6.4077519245 7.2214712983 -2.8651439613 5.8346509394 -4.1255272965 -2.0262155561 
7.377124701 -3.5277613017 -8.9325001497 2.3027472577 6.488166236 7.2195518869 5.3730983772 6.2323548705 -5.5823390558 
-6.1834466376 -2.5766843168 0.92293239246 -3.9016933322 8.2505916157 8.3043886224 4.5229648179 -5.9015316538 -3.5161668969 
7.006161237 2.1192131061 -1.6116405269 -5.9927532185 -9.6001185222 9.8916362868 7.6328824607 -8.0553392814 -6.7371786375 
8.4460163476 -9.4788502226 -3.3830873121 3.9058346111 8.6099467537 6.7020565628 -3.2001985649 -5.4785297192 -7.0169389576 
-6.1706496969 4.6774836214 -4.8023197272 -6.6947012828 7.8675866003 -2.5187740977 -8.283781382 4.6060600002 6.5931117798 
2.9502618068 -7.7039873537 -7.0196163139 4.512719335 8.8193083163 -5.7554258665 -7.7786834153 5.0837041675 9.1408626895 
7.9223885624 3.4158536037 -4.4500199516 7.9898372597 -3.6951871624 0.81913081507 3.9213755266 -9.4589117762 -0.21400121305 
8.001875276 -7.2719706164 -6.1397276406 6.3503651765 -5.6463216047 -1.4299890645 3.6406616779 -0.99200579209 -6.2670569763 
-9.2520158322 5.5091269012 -7.7348974411 0.89738115586 6.194740492 6.8301234782 3.1827707157 8.583564432 4.2519965549 
-4.9025954329 -9.6421421312 7.629738969 1.6497745901 -9.109481215 -6.963305876 -8.4539715598 -6.4986202663 6.8989231445 
6.8278911408 -9.2044588362 5.8870061558 -5.305563499 9.6100415081 -2.8130138746 -1.871566968 -9.9922403103 4.1063897075 
-0.0096553638767 1.7710053855 0.83782934524 -2.1857332846 -8.7425311908 5.8091723429 9.9511718293 -9.3364584182 -6.107643899 
8.4175440844 2.8617762739 7.6926344762 9.8781109928 -1.1269817332 8.9975214227 -6.940526335 8.7524360172 -9.9576514983 
9.4144918816 -9.6744153785 5.0762019962 6.3490560314 -9.4772319877 -6.5395097158 6.8823513632 -7.0740671255 1.555986557 
-1.4639004774 -8.0626596528 0.12853730621 -6.5538896096 -8.4957999654 5.6320994199 4.1457121614 5.9224055239 7.4998925804 
-3.9392364046 -5.6213012132 -2.1601784022 -1.8646463837 -0.80434084179 4.9678504974 -1.3302779825 -5.3411652482 9.3383285698 
9.8539625836 6.5470787566 -9.9944071579 -9.8103420768 2.3902279384 8.1302078942 -4.621036444 6.1445411266 2.1087169023 
-1.3806523155 -2.1845616252 9.6954147356 -4.4191920906 -9.2231814538 -9.8572617224 -2.4378128585 6.9212325704 7.884276243 
-5.2055815675 -6.4882319256 -4.6911018779 2.2098805737 2.0858910001 -7.3506961467 9.1454753208 4.9428690864 5.9294213052 
5.2650068651 -3.4351932957 8.504280043 5.8102351895 3.3434830876 -8.926458139 0.5192166599 -4.126986775 -0.81187905656 
7.358440706 7.1278412817 -1.733507996 -8.6526175335 -3.8242101568 9.4125367321 -5.5599723598 -8.0818502492 3.0776829781 
-1.237665649 -6.5266997367 -9.4639857703 2.442636354 7.7854780885 7.5082907709 -7.9560062363 -3.4760321949 -2.3464290904 
6.5332403046 8.0770823768 3.247973138 4.8960236218 1.0834999211 -8.8022959384 -3.1893840005 7.365979856 5.7436017135 
-6.9046288558 -0.39124557564 -5.7183519732 -3.4094365262 -8.3534673978 2.0707311522 6.7992889093 -1.7761298568 5.1218641517 
-3.3161151101 6.0139481128 5.5562921997 6.322279238 0.3714409483 0.30608667445 -5.8634303194 -9.6859470485 1.7414813386 
6.1176562419 4.23139191 -2.5764937382 -8.0894890563 -9.0339786074 7.5306092493 -7.4585614166 4.3084869681 7.1901758261 
8.094522362 5.24151701 -9.4102906831 9.4069810551 9.7816653163 6.2505607173 -8.063473146 2.0900790524 -8.015673229 
4.9234695194 -5.990368802 -6.6683150375 -1.0558224537 -5.2507593232 -2.6349260713 9.8518427452 -6.5950032859 -6.4836839258 
3.5254310854 3.0635902318 0.48123042741 9.9990448221 -5.7595255722 3.7675789813 -0.59764331883 7.3653220431 -9.8165981263 
-6.2440411121 7.4884025236 4.1188775758 -4.607248534 9.8043255656 -9.9292838428 -0.031941050214 -2.2545524114 -3.2986219007 
-0.022855049981 -3.5876237484 1.4379047425 -1.9638949056 3.4342405121 3.0852445048 -0.082468732323 3.1786755128 -2.1169416885 
1.0410357131 0.9813286673 -3.5501385595 -0.12454631619 -2.658522936 -2.0296853652 -9.170849289 9.3019843536 7.2624248833 
-2.0673002574 -1.3000081249 5.6753404338 -6.0716707272 -4.659297743 1.6990240423 6.9707619434 5.1293525961 0.7726212393 
-6.9959165928 4.7477780587 -9.5315867736 1.2613447352 4.4122352123 9.9091042143 5.5029282328 5.1499203303 0.19641912062 
-1.0581807652 -1.2866985661 1.2916418161 7.0885923171 2.2377213703 -5.1175335992 -2.6135961665 -2.6780585564 3.3357392824 
-7.0667593766 -3.1932175871 -6.6671502108 8.549246676 -5.0937311402 -7.5129072971 -9.4296807271 7.8949224246 -1.2485054391 
-7.9323315759 -7.04215555 -0.2743254104 5.0533644506 6.3966634417 -4.1787996128 4.1611315949 3.1156799001 -0.346003814 
-2.3252737646 -4.1400289562 -3.0438440419 -4.2015761687 3.0955263723 -8.2652459013 -2.0225839008 4.5602821022 7.2792737881 
-8.4320754305 4.1198730664 -4.8967014705 -0.20866282942 -9.1419755206 -6.9151131143 9.8176597799 2.0972635818 8.3744304636 
9.7123150236 9.7970002506 0.61016539793 7.9701124751 -8.322528172 2.1723430655 -5.139009264 -3.4017838439 1.8145056893 
-3.6156963199 1.5790524252 5.4948668169 -3.9670798079 -4.0889224806 4.3497841658 4.0008355173 -2.2087729199 -2.5981102045 
7.6266048216 8.5197419973 -6.1247843308 -8.9233114754 -1.5545070426 -4.0761866291 -1.7196881104 -1.6762101863 9.4194989989 
-0.28145042584 -0.18732546489 1.6379845282 1.1858822418 -4.1768558294 2.3396257225 -4.2292942141 1.1892257526 -3.1887129288 
-8.6296424612 -2.7405094257 -2.7004115184 2.7386186674 0.87258147965 7.7364782936 -6.7193493725 3.6158933179 3.2216200062 
2.0174346711 6.614579512 -2.0732171026 -0.55711815965 -3.4092270871 0.56388637626 3.7202036683 3.6089044124 6.3045152177 
-2.572255398 -6.8945958124 -6.3643850685 -9.2091170823 -1.0373868856 0.069281876819 9.9861592152 -2.8866492106 4.7444970152 
-5.9078787539 9.7225387374 -9.5819598989 -2.3335607294 0.21665443552 -1.7392264696 -3.0028209303 -4.9387439927 -9.4631733144 
-4.2617942417 3.9764095146 -1.7759380309 8.3785276389 -3.0999628059 -6.5325513853 2.9345328167 -9.5953980804 -1.703871074 
4.4793143292 7.6583561167 -8.6900789399 -2.6087267146 2.065458862 -4.338327427 0.58089333093 -5.7279209856 -8.0964053895 
-2.8377904972 2.8567742508 -4.1671865499 -1.4912359502 4.397613521 4.94149672 3.3846066522 -8.1169500408 3.6083657443 
-5.2526021788 6.8044189017 -8.0162881379 -5.0123576027 -1.6929037048 8.253972144 -1.7127117783 2.4063917257 -1.2996837646 
1.5259144478 -1.7272156118 0.5706985574 -0.78219521629 0.91251309061 -7.2571665004 -1.0729635475 0.2433385073 4.7910801863 
0.36712042693 -7.3439223478 3.836939575 2.1040856457 7.295552278 -3.7946006997 -3.1038029415 3.0309446796 4.2713112001 
-9.262892219 -4.7829399672 -6.3656616425 7.1829110218 -1.5546391039 5.4960730529 -3.7422443493 -5.7195888539 1.94399229 
-5.8856087537 8.0593671943 -5.1774292442 -0.52727900292 1.3700666018 1.4196198846 -0.70576420051 -4.0200035995 -4.8815179256 
-6.3886480615 4.7941037343 3.2697001403 -9.9508821855 -0.54952960352 5.0556659848 -3.8474366355 -9.38105403 -0.60015479528 
3.5763822583 8.2204281873 6.5007539478 9.7821882423 -7.3287329755 -0.86465928161 0.36512978307 7.4417250814 0.19740016064 
2.7057125304 -4.4101524225 1.2377618669 -7.0571459566 4.4937308825 1.6767998775 9.2858674158 -7.1753279466 0.84200727964 
6.136709122 -5.9583768199 -6.4129490704 0.97989523896 1.5095326575 -9.6533217977 -0.955311314 -8.8318978239 2.2435524788 
-0.66674760325 -0.38604203912 6.0365954154 -5.6776293184 4.7375971349 0.67857966054 6.0567568536 -5.7464111801 3.3835556789 
-3.0862301476 9.6963782512 -4.9469897985 2.6969813821 6.395658032 8.4519734869 -7.6949738307 -3.8391396638 -7.0458209659 
3.4458197684 -5.3760755902 8.1991295072 8.9393124573 0.61562042115 -5.1391590916 -0.45279417353 6.6576734822 -1.9621656919 
-8.0881359855 8.1587677869 -3.9250820148 4.346708369 -5.7243111603 3.3515646139 -1.1672179208 5.403710952 -2.0897441902 
4.2665174095 -2.0149656695 -1.9560087272 -8.5382097864 -1.4950334876 -8.4909413088 0.4397033611 -4.0849907633 -5.7484260187 
4.0361593482 -9.1047422857 -1.9291263765 -3.8343467784 -6.557364219 5.5273933599 4.3587851191 0.7166757118 7.3806839409 
-6.6606731419 0.31449874228 5.9909515818 2.9127218335 -4.4027973212 -7.13009563 -3.8167983535 -2.642431848 -6.9306660546 
-5.5073551428 6.1672652462 -1.0759548816 7.0763803738 5.6411406865 -9.2164204767 -6.061231857 -9.8557153799 -6.588753435 
-4.9530359796 -9.9428921609 -9.6718511187 -5.9800394055 5.4751609263 -6.5089323534 -3.8875579766 5.5036974125 -7.2739866705 
-0.60355604594 4.6658356744 -7.0100498175 8.5977982612 -9.1133976932 7.3896577784 2.7592428813 -0.59533973717 -7.340918589 
-3.5787110121 6.6209785196 7.0721182075 -7.4748376745 6.739699577 4.766657898 7.017350135 -6.514830869 3.7765790314 
3.463391243 -7.5854109404 4.2848889677 5.0690079118 3.7655591927 -3.2272703207 1.6119274571 -3.9958123167 -3.6834753501 
-9.1031825183 4.011828316 8.737615908 -0.6150179042 -5.6219022186 0.45020113053 -0.36282329227 -7.3362204255 6.1741119775 
-4.3434223723 -3.7261484465 1.5421038054 6.3324874683 2.9350529893 0.64073839242 9.9506490554 5.2809974409 -6.4675280982 
-5.7713286991 0.33654610121 1.3275871891 -5.2619806889 7.6670170909 -6.7617283959 -5.6431371786 -7.5363893984 -3.371469487 
-5.4784444054 -6.8475801521 5.6376653452 -2.4937036526 5.1956021577 0.53482434307 -4.0005823544 -9.2132449847 -4.1795043697 
1.3051830277 0.85466015971 -7.8150757739 0.46490523612 7.7637571382 1.525497478 6.2142656805 -0.99989590939 -8.7607587238 
1.0496479036 7.274165656 -5.0800000311 0.94195203354 0.722862311 9.6244093205 -6.6889892178 4.1825404522 -4.9088525279 
7.0705925686 8.3572389202 -4.7354297752 -6.9373354726 -4.8826306233 3.5295351635 5.9966833164 7.309159766 9.4753164255 
3.0136897984 8.0500124941 7.7666646589 -3.9939478396 -4.6826251352 5.6164634543 8.9956968056 9.4989863127 -3.3874173973 
2.929871864 -8.8057993452 7.7297741658 -9.5066236369 -7.4336250585 -1.624318867 -2.7660949692 -4.1748329964 8.1557005232 
-4.5311268283 1.4249612336 -3.3104001818 -4.267724957 2.5665693579 -1.1119738623 0.0049674244486 -1.8374128974 2.17330597 
9.781390334 -2.2601527438 -5.4158118743 0.61899295 -4.2579223515 -2.4913867024 -4.6026894102 1.448968142 8.9901492846 
-3.0078430993 -0.11394502193 -0.15147798161 -4.1536183838 -7.4972703927 5.1707799496 5.4056701805 -1.4175646367 -4.9602054368 
7.2863102369 4.8538352401 5.2116860352 6.9860456687 -6.328098201 2.9309989057 3.2846569454 -4.9406503436 -3.858765682 
-8.1544763813 -4.6376631776 9.186461287 -5.9841611063 8.0878522332 9.7438924505 -0.68886208538 3.2957046915 0.93162174755 
3.6088277912 2.9941971632 1.900981298 5.3612389774 0.69670523047 1.5651933512 -0.68890314789 0.32703549979 1.0165394597 
-2.7879713123 2.2276910016 2.5681025928 -4.9907545958 -9.5464940437 0.96907986122 1.7625447109 3.3412994169 2.8211356028 
-7.7369163609 6.6528360383 -0.72526632841 -4.2996977574 4.1966457 -4.1116277111 8.7333999727 -0.069104559336 7.6625277164 
-2.2821472666 0.97653710292 8.9780050512 9.1953112736 -3.4956621388 -3.7660882632 6.0018331869 -2.560697001 -1.0926564217 
-2.579271013 0.10819357731 3.3180601983 8.8890719769 6.4394423869 3.8936004376 6.3742383265 -7.9947158815 9.3774241323 
-6.3500683834 -6.6912241156 -6.3108306694 -1.7958176989 1.2705358314 0.85762835798 -0.10955725424 0.15158995202 4.7905916793 
8.1746056421 -9.6687600982 -4.3603048501 -1.6013252179 4.2916957513 -4.6744172761 7.2040423793 -6.0324095112 -1.5222394108 
5.8875415904 -5.0327284888 8.1280392056 -9.5086090514 8.8588848975 -7.9847196378 7.3414879006 -0.5304224416 -1.4887880668 
-1.9053546856 -1.1352163741 5.004616609 -9.9633685894 -1.6223995857 7.3152378648 2.5270207935 1.0548575497 -5.7935045906 
3.0956997579 -1.6950833961 7.7957322776 -1.0723006932 7.4144772827 4.5331881675 -8.3626683456 -1.9675965649 -6.3369907613 
-7.3087090266 -0.89828369059 0.44976088354 -2.8039928615 -7.2201894534 9.6776462401 1.7235482424 -2.6374009275 4.0118876694 
5.4362086857 -6.6677963594 -8.7912463128 3.4676368809 -0.28968244625 -6.9855044114 0.39638671365 8.1736371413 9.0643231352 
3.7482254035 8.7840505542 -1.2735790617 7.7821870703 9.3813995507 -9.277171893 -6.123115855 -5.6424562094 2.3615943593 
6.5550318783 -0.05409575262 -1.0160051395 -1.6009759808 5.1405061038 -4.9394910331 -8.8621400779 -8.4441134941 8.7094955683 
4.7905408393 -6.329208963 9.5005721121 4.9732941909 0.53117818705 6.839407469 -1.2681346676 -0.22924844557 8.4656516155 
7.0731328217 -8.9304114656 -9.5357875886 0.47844689212 -8.4810912453 7.6011216523 -0.50610622316 0.039660405854 -6.0292005117 