# vtk DataFile Version 5.1
vtk output
ASCII
DATASET POLYDATA
POINTS 1244 float
-2.96193 -2.65613 -1.81039 1.43298 1.40618 7.26206 0.880112 9.38187 1.67572 
2.54618 4.94604 9.04936 7.34607 0.888808 1.64647 8.65802 2.92114 8.27818 
8.98106 4.53102 0.622203 13.1327 11.4774 7.96548 -1.9136 -0.462543 5.94297 
-3.12001 -6.10035 -0.452922 -6.55053 -2.32411 3.00727 -2.59273 -5.43207 6.59921 
5.26419 2.39322 7.74962 -2.1191 -2.72573 0.395041 -5.59947 -5.48389 6.48665 
-5.30347 -2.4818 10.88 0.389511 -0.305859 14.3837 1.04904 6.90657 1.23932 
-5.59005 0.898636 -5.84208 -1.24263 5.32152 -1.79254 -5.66401 3.43279 -5.66657 
2.74344 5.7695 2.41555 -5.85584 6.31986 -6.26699 -2.00626 3.58363 -2.29046 
-5.22443 8.12824 -7.12695 -3.49064 13.9768 -3.2579 -6.7198 11.654 1.95952 
1.28011 9.3733 4.95535 -1.7006 4.53635 4.08704 -5.80664 4.01978 6.3776 
-8.85231 10.6412 4.04382 -5.61533 4.96581 4.22825 0.264615 8.24853 9.2725 
-6.38448 9.07003 11.002 -1.38076 11.3716 14.4534 -2.3587 4.4234 14.5873 
-6.85491 -1.07785 11.6181 -3.99867 1.44791 7.6798 -3.71921 5.49678 4.54257 
-7.9234 7.16061 10.4211 -3.7791 7.12446 3.3925 -3.53179 8.00208 9.04789 
-5.71316 7.76379 14.7219 -4.74981 14.221 11.4985 7.78325 -6.44426 2.44502 
9.49306 -2.25294 6.19871 7.78495 -6.18394 1.2998 5.35632 -6.84712 5.94837 
10.3341 -8.43065 3.54455 4.51995 -3.71094 3.78504 9.49733 -1.29669 6.69077 
12.0976 -6.29338 7.02787 12.6594 -5.69589 12.3008 15.1232 4.68854 -3.2142 
12.6184 -0.014739 -7.77639 7.14741 0.608553 -3.89424 4.834 4.00387 -4.39576 
11.3078 6.16385 -6.9077 4.31537 6.45915 -5.47971 9.35153 8.16543 -2.29372 
15.9343 9.50169 -2.89567 10.7257 14.4948 -5.52854 10.8779 10.6006 -5.7895 
7.67144 10.3067 1.08783 4.57766 5.8376 3.40346 8.88712 9.8493 7.06975 
10.409 10.9671 -1.47525 9.55129 9.64104 6.41746 8.33601 7.92779 10.537 
5.4206 5.87691 10.5896 6.12818 7.60132 2.68012 12.5316 -2.90946 13.3503 
14.0267 6.48908 12.9143 8.97708 2.2405 8.48387 4.93473 -0.897963 5.23633 
4.05865 5.23974 3.21031 4.86482 10.6894 6.01724 8.3315 8.67857 8.86957 
11.6776 0.824749 10.7863 13.5733 8.54558 15.3826 4.45095 -5.6688 0.532037 
-2.53946 -4.0033 -1.38912 2.90818 -0.336621 -2.19433 6.7834 -3.84974 -6.0492 
7.29206 -7.81328 -1.31594 2.54921 -2.85029 -6.15583 8.92947 0.413172 -2.67145 
11.554 -4.15757 -4.07383 15.6038 0.632091 -3.4661 -0.213085 -3.27229 16.4668 
1.74999 -7.30629 11.2228 4.56232 -1.22444 10.3635 4.86767 -4.26097 3.83338 
3.09728 -8.94367 9.66033 8.67257 -6.8851 10.9717 5.70514 -2.05355 8.75201 
10.2452 -0.793804 14.9053 12.2072 -6.42465 11.0228 1.98589 14.9641 -5.81806 
-0.0479465 9.34311 -6.77267 3.43377 10.0418 -1.33337 7.64945 6.13195 -5.07148 
4.91842 13.7986 -6.74597 4.85544 6.85627 -6.43355 5.87586 9.9775 0.674383 
7.16903 9.67917 -6.30072 12.8304 11.1621 -6.2742 -3.94341 5.93612 12.8197 
2.72696 11.9247 14.6481 2.43393 10.2638 7.99457 3.567 5.36784 3.95539 
5.09148 2.64461 12.8026 5.49848 4.47284 4.55035 6.25783 10.5533 7.31277 
11.0768 10.5283 14.1496 5.2974 5.34617 13.4567 1.10679 -0.99211 4.2687 
1.20479 -2.59408 0.0932467 4.37465 3.32205 1.01297 4.53198 8.14783 1.9464 
0.655546 9.54939 -2.95914 1.54098 2.34513 5.78266 -0.709692 7.01816 10.9238 
0.22878 2.86919 7.81628 0.393308 -2.22797 6.04451 -4.17836 4.39542 12.7467 
0.446039 -0.233607 -0.837197 -3.2398 8.99211 7.38036 -2.1136 2.30647 -0.42903 
-1.8455 -0.97526 6.56986 -3.09034 0.580817 7.95767 2.44671 -1.13038 6.89186 
-1.30773 1.24885 2.63182 2.95677 -0.849743 -0.511589 2.46702 0.856811 11.2877 
-2.34106 4.67765 8.62044 1.42495 3.40069 7.07889 -2.0698 6.56824 5.56463 
-1.86067 5.72151 8.19132 0.951109 14.4495 8.47798 -4.92689 7.79172 4.36421 
-3.43264 9.08928 7.94646 -2.04507 2.27945 2.76652 -4.92829 2.95577 -0.472907 
-1.51721 4.47183 -1.69645 0.536471 5.27438 3.36495 6.18696 7.45493 4.51891 
-2.16159 9.83086 1.18171 -2.63278 8.01955 -0.239902 -0.633223 10.1468 0.0469977 
-2.54184 10.4868 3.66378 4.8953 7.33379 4.29546 -3.85951 8.66567 1.80476 
-2.87412 3.3026 9.19898 -2.80621 1.21527 7.18964 0.633461 2.4061 -1.74544 
-1.93981 0.431717 6.50183 0.606225 5.03802 0.00718828 2.3636 5.01991 3.78777 
1.41701 3.88436 -0.192824 2.45542 5.22895 4.12858 -0.330117 2.75586 1.90778 
3.3589 2.73198 5.74009 -2.37085 0.43473 11.9893 4.69125 1.06724 9.04739 
-2.80666 5.42676 2.26513 -3.86175 4.11762 6.25448 1.55836 1.19834 4.08869 
-2.73268 -4.57732 10.2055 -4.52859 0.902145 5.53015 -3.03892 -1.24429 9.52194 
-5.37136 -0.880293 7.3117 -4.44929 -0.228775 -1.47706 -2.18463 2.96722 -0.64126 
3.94819 4.89097 11.2388 -2.63386 3.93546 12.6164 -0.942825 7.40769 11.4499 
3.48633 5.83818 7.00121 3.59545 4.02306 11.3421 5.09651 7.61658 6.31329 
0.477161 6.75983 13.025 -3.2631 10.4298 8.15101 -3.77458 5.27335 8.14491 
1.09569 7.2126 12.9565 -1.27303 11.7601 8.64066 1.97412 11.371 6.89592 
3.81594 7.66899 3.28694 4.37393 5.54721 10.456 2.79793 12.1886 12.6807 
-3.02462 7.79169 8.02791 -1.17838 8.58408 9.64063 0.550755 6.7117 2.82069 
-1.48919 2.12825 7.64504 -1.58419 11.1181 5.62435 1.99447 7.4078 4.37441 
3.79797 10.8341 7.16405 -2.45753 2.8129 11.3072 0.907731 8.74586 9.8096 
0.882084 5.83079 -3.26604 -4.94675 6.96607 -0.0950392 0.853234 7.04273 7.00002 
1.42045 4.95506 -2.71791 -3.05058 7.85928 1.89842 6.08979 4.57117 4.76959 
4.45283 8.83811 1.67704 1.50339 8.38442 6.50475 -3.81858 7.97763 0.125923 
0.80253 9.06082 -1.63607 0.572828 10.7766 6.23069 -3.59834 8.03142 4.73181 
-5.40477 7.19729 -0.517943 2.98657 5.72925 0.225485 0.4559 4.36287 -0.514927 
-0.278911 4.74079 4.05825 -4.65201 2.95879 1.80001 0.0291173 7.79171 2.89789 
-4.07982 6.89477 -0.819428 -0.905227 14.3481 0.616076 3.78607 11.2243 2.09853 
1.424 8.88356 -0.627287 -0.160109 9.12331 0.194353 1.057 4.88424 -2.53433 
-1.39951 11.5003 4.76384 3.18467 10.8022 2.70062 3.63457 5.94698 7.18376 
1.969 11.6872 7.80303 3.65004 6.27459 5.33855 -1.49359 10.829 4.7044 
0.275541 3.04478 3.22141 0.670708 9.6413 6.51783 0.0164469 3.43709 3.69521 
-4.56535 8.86492 7.49357 -2.6211 5.35579 0.533529 2.72258 9.11601 5.80022 
-1.80325 10.7843 7.71934 0.120332 5.46547 1.11845 2.90079 4.49924 4.20991 
-0.472416 9.90946 7.1117 -5.04048 4.4299 2.81333 4.04345 4.60827 6.90468 
-2.77691 9.64302 7.08208 -0.701267 10.5947 5.79385 -6.56899 5.97618 4.96751 
-1.20829 3.23271 5.09556 -0.548422 7.41647 -0.751538 4.52634 5.81698 2.05283 
3.58214 0.0791403 0.569845 -2.17359 5.6207 2.04822 4.45244 2.0596 5.43095 
0.103719 7.62714 2.09179 0.794653 5.25851 7.13501 -2.93782 -1.12432 1.62258 
1.6765 0.165165 -3.70536 -0.0243865 -0.678986 4.18991 -7.07025 0.226056 0.884598 
0.662075 -2.57553 2.1673 2.00141 5.67872 4.78797 7.13823 0.723767 3.719 
-0.478793 4.48773 -0.55655 1.2287 -0.898155 0.731021 0.509774 -1.35216 5.89338 
-1.94016 5.52317 5.91885 -3.17025 -0.5261 4.97348 -2.56129 1.19291 -1.27494 
4.32105 0.897973 2.52067 -4.75596 4.9195 4.45117 -2.56063 5.71633 10.9635 
-5.31749 4.38614 5.6339 -0.274436 -0.218362 9.57534 0.416757 6.84271 8.12238 
3.95498 3.3223 6.02617 -1.77537 6.3887 7.7254 0.990057 5.37629 9.71706 
4.8049 0.786074 7.45482 -1.38584 -2.18075 6.40492 -6.21375 0.675077 4.35849 
-0.620424 0.597948 0.192947 -0.697869 5.53657 6.30314 3.35326 1.04677 6.55308 
0.17563 3.12463 11.1453 -0.635389 0.673146 7.82958 1.39229 -0.488617 12.2621 
2.63062 -3.07427 9.82868 0.365839 5.11943 10.359 3.41687 4.41286 5.82388 
-3.94553 2.57941 6.5901 0.905297 -2.69121 2.47957 -0.160787 1.1709 7.19955 
-4.09478 5.78716 6.97447 -3.71776 -0.761817 2.79769 1.13574 0.363407 7.12844 
0.905961 1.48608 1.6223 2.49323 0.0173924 8.48278 1.346 6.05556 10.451 
1.49633 4.53393 2.94602 1.67808 6.7059 9.85267 -5.07553 5.62953 5.66864 
-3.33517 0.676599 3.32638 3.15559 3.5154 4.22347 -0.0417886 5.39263 1.53371 
-4.43996 3.25116 -1.24596 3.48579 1.1803 8.5394 -3.63086 3.75819 10.71 
1.41072 8.5341 4.47282 10.5183 -2.36515 1.94459 12.9311 -1.53153 -0.144301 
14.504 6.64722 1.52186 15.2225 3.73484 3.55954 9.49537 8.41933 -2.91774 
9.98049 3.85588 11.0559 9.86183 6.74156 8.41076 14.5286 4.79555 6.55035 
14.442 -2.58184 8.19162 6.43259 0.839859 11.7131 7.17665 1.23433 -0.321523 
9.26126 8.86155 7.58517 4.00606 1.97094 5.47765 10.8306 -0.047984 3.40417 
5.60447 -0.682602 11.1031 6.97148 0.836938 3.55194 4.2736 -2.7307 2.45912 
10.231 -0.434861 -3.06869 15.1204 2.9695 10.772 10.3232 6.67552 6.82732 
8.24996 10.0201 8.39897 11.8156 8.80384 11.7503 8.37437 6.59615 12.5053 
9.49699 10.6463 6.2975 8.7213 2.2629 9.64341 6.92989 5.66031 2.39335 
8.31324 8.86828 1.2014 8.29452 4.34216 -2.50948 11.1822 7.52736 5.34888 
9.64398 6.92221 5.64262 6.1447 9.01593 4.62278 7.39438 4.37676 6.25886 
9.11985 8.26263 4.46988 10.5881 12.7173 2.24133 11.2034 8.13795 3.56114 
12.7145 9.04412 3.33666 5.91504 6.01866 5.63642 9.23921 11.7428 2.57511 
14.3267 5.09724 2.91153 8.48609 2.46406 8.15751 9.29969 5.96318 2.05796 
6.76006 3.6495 -0.184839 14.6908 1.01827 4.11618 9.63529 4.47531 7.11508 
4.40433 0.313422 10.2358 6.96745 2.36427 11.701 11.5689 3.11755 3.29035 
3.89161 2.38801 10.3164 8.87959 4.52652 11.7975 6.18275 5.32454 7.23969 
12.594 6.47642 3.09068 9.11036 0.219072 3.85134 10.5955 -0.30564 9.79527 
12.1441 -2.72298 3.78584 11.767 -4.10787 7.19511 7.65978 0.0734186 2.81456 
7.74073 1.98372 -0.977528 6.7906 -0.428154 1.10753 10.7322 -0.863566 8.83961 
10.1399 4.16221 7.52096 8.64017 4.84608 10.546 11.3787 4.82613 5.41814 
15.7175 4.65453 10.4581 12.3389 5.97739 6.318 6.56497 8.95323 9.04464 
12.5821 11.2095 3.48103 13.4522 7.6991 11.5013 11.6198 5.12946 5.70852 
7.52931 11.4871 8.47467 6.21531 8.22856 5.69312 9.88333 1.71542 3.91363 
7.94248 2.03526 9.94742 11.7559 14.1008 10.2678 8.96943 10.1881 10.3976 
9.91094 3.93595 3.69133 12.0213 8.8366 3.41867 6.10756 6.58919 7.85356 
11.4667 7.46697 6.14039 13.2263 4.14848 9.55737 13.4118 9.11951 9.16087 
5.92678 6.19123 12.8471 11.2309 7.73636 12.0341 7.93846 3.67362 0.864144 
6.23655 6.59269 -2.35446 11.1989 6.43023 5.29469 11.8398 5.96822 -0.392497 
9.08098 2.85322 1.91768 12.3897 10.8866 -0.3182 10.6259 6.17116 -2.35891 
[...]
CELL_DATA 2484
SCALARS scalars double
LOOKUP_TABLE default
9.4876526261 9.6676415363 -6.7808797329 1.5250852468 7.402975223 -1.6972603266 8.7041899096 -9.8030921542 8.8459646957 
1.5907768388 8.2086684857 -2.8953690206 5.2898516743 8.2393187322 -2.7358024147 -6.9498786573 -7.5082697648 9.4289369621 
-2.4951801178 5.280786958 -1.193218919 -1.5117126188 -8.4730176683 3.1013923106 -0.28585801213 -0.66649364836 -9.907271781 
9.7439471893 -3.6089879913 -5.5491883383 -4.228979587 7.6033466918 -1.504069793 8.676439898 -6.9718869306 -3.7899065507 
-5.337686589 0.074439612182 -4.5819496872 8.563173261 8.2848408674 2.2857796436 0.44779675118 -2.3182085299 5.3593138444 
4.0331215788 -7.2476958178 4.060687802 -5.8213099839 4.7115413637 -5.5900973914 8.2537309347 1.8974859491 -4.0381152616 
-2.8084132413 -5.1218557636 -7.1898528087 5.1489928533 5.1612171912 -1.7478607511 -1.4322112785 -2.0461978354 -1.3157217345 
9.8206423273 2.2685101653 -0.18262569235 -0.0373536271 -9.1272036352 9.8099462674 -6.0507593473 -7.3126616635 -3.5928470778 
-9.4170147527 8.7935715537 -6.2094644106 0.96937643724 2.426340186 9.6943341694 6.5251192474 -5.051015424 -3.3650744897 
-5.2381413692 9.0619529935 -7.9959376174 3.3374036294 -3.380037915 5.4371054625 -0.61720417274 -5.382556169 -8.4508065245 
-4.8102471779 5.2606066683 -2.5370891751 1.7299161558 -5.2305450182 0.63811635664 -6.5215436338 7.8819669646 -8.453707246 
6.2219242266 8.4129699366 -5.2084251696 -8.9707311944 -7.3504251085 -9.5416900984 9.4463207902 6.52081506 3.6157131719 
-0.38417717407 7.4554842089 -5.9909997556 -5.8880581552 2.0936427431 -8.8182637716 8.6978455309 9.3053326816 -8.3748684412 
9.1480674248 6.5677780809 9.5823151486 -9.7765616835 -6.6330142265 -4.4702954917 9.9080593985 7.7009645657 -0.74275454827 
-4.9155441427 9.3981348533 4.6176729352 4.9068708831 9.1972569419 -3.0136753335 5.1797718826 -6.6712640618 3.1281062828 
-2.8952753393 -1.1179127182 -4.2232039351 5.5443343116 -6.2509021557 1.4332680412 6.3584425878 3.9391999072 -6.5630752465 
-0.9797148656 -3.4450245512 -7.6332922812 -8.6954754602 3.4800574536 -1.9892317211 0.38334562644 1.674121072 -1.4832180171 
3.8998983664 -5.6965843031 -9.2641396785 0.20160043202 -5.6819827081 -7.1158851373 5.2064293487 -1.2003297806 7.6992938243 
8.5360901428 -2.3331134509 0.56831014256 -3.8610097992 9.4088202872 -8.3147498218 -3.7287210446 3.2571758486 -9.0971363561 
-6.7358406012 -6.8018100102 2.2225291332 7.0974611374 -4.8246110941 -7.5413793012 4.7888291314 9.7800525793 -8.3635942028 
-9.092169854 -9.8508081799 8.1893298451 -5.8792120652 -1.9681315862 -2.8380796033 -6.884926725 9.5707478861 2.4645216565 
4.0512457917 -8.9194419251 -9.9822434396 -8.6856162239 8.6769715214 9.862381525 4.5239981159 1.007763932 -4.4616639568 
-1.8055656006 -0.69421980127 8.7743656488 -7.6453345256 0.01536465823 -6.778491726 2.1842327783 5.3508631059 -9.3426024002 
-0.12630351777 -5.2501446444 8.0208935241 -0.025376019598 -9.444261879 2.4978090345 6.079106327 8.2530974721 -1.7036143534 
6.6008583307 -4.9378280465 2.3579275886 1.3602235686 3.1313140724 4.8340992154 -0.54704551144 -0.95667219787 7.5197717561 
0.31504165012 -2.0763425763 -1.0611205124 -4.8449470298 -0.89452012861 -7.5158372878 -7.3050411605 2.8362636522 9.5222449152 
-6.3134327388 -1.3780491708 5.1570038855 5.9896335947 -3.9028628157 2.4910153454 -2.6756343571 -6.7971640645 9.0473170099 
-4.1403338568 -2.8079998691 1.3006774853 -0.64722948324 -2.81719819 9.592796185 -9.6695876056 -5.8667885087 7.6291716587 
-2.3021059191 7.3321636593 -0.5005426139 5.8428793401 -0.83794618165 -0.87366418718 -0.58840465333 1.755377779 7.1287948806 
-2.8966075757 -1.2836470318 -0.27602449402 8.0471900805 1.1191646071 -3.0728387472 8.1702140384 -0.30649193602 -0.81887691236 
6.9162608866 -7.5962530838 -3.8205277518 9.5741811033 1.2248391107 -7.014659842 7.4630842746 -7.6909866986 -0.14186678642 
2.6015968992 -4.779663065 -2.8437732527 -3.6044485741 -6.090723215 1.1817460992 -0.50321555935 9.9508698091 6.0372216272 
7.1411854279 -9.618403323 1.7797312519 -9.9328363051 5.2337972384 9.9223522598 6.8908057168 -0.77192356878 1.0725030866 
-2.2185367816 -3.4167918757 8.3792677702 9.2723650217 8.8073351391 -8.4156740512 -6.4867623191 -1.7370984122 0.53140732084 
4.433158938 4.7290152515 8.3365758413 -4.1244419476 -9.5444123944 -9.5085596888 9.7347349531 9.5267702615 -5.3352538097 
0.042940815084 -0.38289301094 -0.59832598385 -3.8510544945 -0.84029283852 6.9244435483 -0.87396717664 -4.6832516421 7.9211052484 
-6.9194044854 7.5673667653 -2.4533959323 7.3040246578 -3.963473753 -6.0884562441 6.7518542046 -2.9125337779 6.7489571288 
-8.5312163779 -6.0789741051 3.5629135508 -1.5611691805 -2.8966052242 -6.8154257866 -7.6549442084 -8.5506242106 -7.5882102338 
-9.3257077109 -7.2070613248 -1.7018930877 2.0681365648 9.5376730365 5.6228538066 6.1966656111 9.1202442912 2.6666803923 
5.104098299 1.1583692696 -3.6347452346 -5.3958638814 2.0979249749 -6.4513120894 -3.5729352774 6.8276090158 -1.6150193921 
-3.3085944072 3.8976741688 1.6740050236 -3.5397597037 -6.005348171 -7.7259193605 -5.0671288054 -6.3950462092 -8.4820185444 
8.8222935305 9.8925657216 -3.5066045648 0.1212533186 1.1307321428 -9.2604949661 -7.9957745394 4.6479514445 9.5397087855 
-7.0162457031 7.6594023299 1.3575482932 -1.9272900154 5.3228755982 4.514808013 -3.022208587 -1.5870615569 3.0063034596 
2.4398437081 -5.3897323124 -2.4238219669 1.7895169531 2.8899091945 7.124139745 5.3103184574 -4.3950754352 -8.7443392923 
4.5907434454 6.1606366674 -7.9226521576 5.199524314 3.3352815933 -2.9154168706 8.0854380232 -7.4921326736 7.1690579073 
-7.706052242 3.4707436092 8.3606286361 2.3158676741 -3.5084281372 -7.7771928313 4.6255384028 9.4436271205 -5.2712737826 
-5.2686953002 -4.9049811459 5.1557769542 4.7267881786 -3.8868664039 -8.2126272259 -3.5715810916 2.6033705848 -5.1639025718 
-4.2945451711 -2.1531614879 -4.8948522847 5.6074851147 2.3438069774 0.71893347545 -5.9454216096 2.5948221704 -1.0549107179 
5.7383393457 -2.4784248892 7.9981895585 -2.2393593163 -0.97990541137 6.8386601962 -8.2023737058 1.6100359662 9.3969459953 
1.584146551 9.522508213 8.915002076 9.8273571078 -9.9957385045 -9.5691286274 1.9173774436 8.9075807223 -9.6547181384 
-6.029422994 3.3096261103 9.5697755436 -3.7902253415 -6.6131663929 -2.9401100826 -4.106380967 6.1300568957 5.0878361647 
-0.69968798636 -8.6477216505 -4.1972351754 8.6646391758 -9.0934903909 -1.3135064705 3.1370488942 -1.1701016868 5.7874175378 
0.73611241892 4.3835551211 -9.1052183224 7.4344654932 -9.2623052115 2.7774171808 5.8270427698 8.4722902086 -2.3425232715 
-1.4664039625 -6.8231837407 -7.6886840401 1.5560740063 -9.7340091542 9.0859939358 3.5717940203 -2.6741065 9.3648390445 
-4.910797544 -9.1957215448 3.6300948895 6.4401931306 1.6010123164 -2.8128497539 0.47234152747 4.2606758777 -6.2771580391 
-0.72748697721 0.94179785495 -7.6736953062 4.268557662 7.3151053573 -9.2494406377 -8.3650067036 8.389291665 -3.7270565988 
-7.594483607 -8.1453357481 7.8486237449 8.3719224903 1.5313860256 5.496353099 -0.31131824654 -6.9041200569 -0.62430781353 
-7.7028292365 -7.2472823727 7.5320233954 5.9757913837 8.8141629831 -9.9441702286 8.9227234006 -7.1366860683 -0.21224078997 
0.43444960631 -4.4189824953 9.4268871263 -0.99472807911 7.9446923553 -7.0187862772 -0.66503615585 0.63517116969 2.5683620708 
-7.8533136404 -4.0508722768 1.6570141756 5.8070940569 -9.4595636347 5.0027411202 -1.6055723738 3.6361455161 7.3915624341 
-0.9363066612 -2.2202291059 2.790986036 -6.5248960525 7.3991976499 -2.9636986809 5.5544590964 -4.2143550516 -2.3714801433 
7.3171374421 -3.4929676606 -8.8346938164 2.6624395125 6.6799060019 7.4619236964 4.7418569435 6.4252207536 -5.8547570055 
-6.1862044569 -2.7329262296 0.81890711005 -3.9525136754 8.1248413738 8.2092358578 4.3862844978 -6.0444348602 -3.2177975799 
7.151313453 1.937951916 -1.8037579014 -6.0511493244 -9.5734490889 9.9079275918 7.3483654275 -7.6143489657 -6.3571329137 
8.3900188215 -9.4392213892 -3.7037968604 4.0597670467 8.7213754743 6.848196618 -3.1185255546 -5.4899186863 -7.1272106121 
-6.2878552344 4.4737707964 -4.8169386511 -6.8440612972 7.9144574246 -2.5316948319 -8.6472167434 4.4325617351 6.759179553 
2.9253628474 -7.5748356307 -7.0254045906 4.3042049595 8.7673867412 -5.6670450937 -7.6023119531 5.4942635398 9.2396304024 
7.6583980313 3.3823380765 -4.5857392198 8.0704097658 -3.7384935615 0.99567663061 3.8017448347 -9.3805990266 -0.31215386567 
8.0950662219 -7.2413592138 -6.2173519529 6.5154106435 -5.6026091602 -1.4188603717 3.3974708825 -1.0978040965 -6.1149278628 
-9.1982347524 5.5458978834 -7.6546408722 1.0324652776 6.001117033 6.8163994855 2.996431404 8.5182470077 4.209150081 
-4.7319324957 -9.6989889634 7.4951826654 1.6409152104 -9.0566661456 -6.7201725644 -8.4035700975 -6.8558289876 7.0657957112 
6.9825136155 -9.2462796782 5.7863356397 -5.2766142242 9.4629108447 -2.857817304 -1.4280021903 -9.9880653495 3.4938448799 
0.46922125558 1.6233843656 1.085306026 -2.3138932098 -8.6367658376 5.8744940353 9.9379084668 -9.2230348744 -6.3236682797 
8.2906253044 2.3038837569 7.6905209 9.849681478 -1.1730566139 8.9605931139 -6.5081855308 8.7443244816 -9.9755007305 
9.3407884914 -9.5167254649 5.0265296553 6.2528295569 -9.5078360992 -6.6350870751 6.8773402683 -6.6640724139 1.5040469735 
-1.3338720855 -8.1218875 0.21072811745 -6.6460813855 -8.780700941 5.4814061855 4.1359502809 6.1776062816 7.8715684326 
-3.8929630865 -5.4306620856 -1.9608659081 -1.760051084 -0.61879661715 4.9731587208 -1.2265459276 -5.1096008225 9.3364970745 
9.8268148003 6.8941115484 -9.997746749 -9.6875406837 2.406594299 8.0722499105 -5.0537021987 6.680213003 1.7917086563 
-1.3204044777 -1.939172856 9.6815487837 -4.0831335867 -9.1467179429 -9.8461879192 -2.5283935287 6.9002906487 7.8159926195 
-5.3021103457 -6.5799041032 -4.790880901 2.5253690357 2.3583033213 -7.2759438641 9.117930955 4.9418153441 5.8968149251 
5.1746978128 -3.4241307434 8.5102014699 5.6918585354 3.7118680459 -8.9261150334 0.79086896196 -3.6381453185 -1.4481001141 
7.5821509527 7.0290673341 -1.9929433618 -8.6632202592 -4.5639395328 9.2839426247 -6.0270257701 -8.0573946398 3.1637752892 
-1.0477442387 -6.5164934526 -9.3822715037 2.5955261741 7.6982315531 7.4036219078 -7.9051890195 -3.037918882 -2.616509634 
6.3901446748 7.9736068681 4.2385403487 5.0912390104 1.5347066056 -8.7636081396 -3.2670546586 7.2246059238 5.5986020825 
-6.8073304219 -0.51340995144 -5.6792845486 -3.2519796775 -8.3239410702 2.3038155997 7.1302073598 -1.7099105206 5.4889808878 
-3.5457700663 5.8955379265 5.8009739422 6.176465162 0.43556626289 0.71670884323 -5.7969356357 -9.6691771491 1.8848535391 
6.0286438256 4.1294724035 -2.5773255792 -8.1329113305 -8.8835160402 7.2972628367 -7.4255823132 4.0784406564 7.0883953138 
7.9915920129 5.0719827778 -9.4399441332 9.4914235956 9.799532454 6.0723277972 -7.9894089087 2.0199717251 -8.0210054438 
5.0132350283 -5.9130684622 -6.7737232105 -1.0572443154 -6.0599939599 -2.5463944841 9.8401973698 -6.9126612375 -6.6252895903 
3.5836800093 2.8230966996 0.79619558469 9.9999711736 -5.9008089811 3.8588298489 -0.3992888863 7.4535125287 -9.8319368019 
-6.5197703164 7.6001396524 3.8537023923 -4.6236412875 9.7687846845 -9.9250024201 0.26217160969 -2.4920715304 -3.4301209787 
-0.09295703678 -3.8041236109 1.3810277949 -1.6897078103 3.4656755459 3.0334922812 -0.22213171239 3.1408577544 -2.1000391488 
1.4143595928 1.0960612247 -3.559748673 -0.17862772827 -2.7572088875 -2.0236617303 -9.1409457291 9.3591048075 7.1859087108 
-1.864159587 -1.2552368262 5.4689589212 -6.6926657503 -5.1021336321 1.3879447973 6.9856807115 5.3894686283 0.57850321648 
-7.03564765 5.0361039834 -9.6316068727 1.304984801 4.6048424951 9.9259245873 5.3506907798 4.8314712216 -0.045556058409 
-1.1166609956 -1.1744873055 1.2923828078 7.0480987031 2.1507560944 -5.0250656254 -2.5212269856 -2.7262057011 3.4056573769 
-6.9401800113 -3.4389846766 -6.5819179862 8.633893231 -5.5064160819 -7.6530205669 -9.4421944354 7.810045147 -1.3061749161 
-7.8145180962 -6.7204667613 -0.22928250588 4.8075906204 6.5291115129 -4.010300174 4.4793815734 3.0650569097 -0.15487821921 
-2.1611439567 -4.3520724632 -3.2314777815 -4.0185878803 3.3064661194 -8.2487435923 -2.1330960159 4.2786948804 7.1610998536 
-8.2318035928 3.928629556 -4.8865295537 -0.26568593077 -9.2377543704 -6.7101253724 9.827062974 2.5295381766 8.3834695309 
9.7238281658 9.8208792227 0.62032074148 7.9766084752 -8.2157936995 2.2808920539 -5.0310665768 -3.4477938152 2.2247504739 
-3.6779472904 1.4343255512 5.6583801544 -3.8525272709 -4.5621253451 4.5859032522 3.9704858559 -2.0692888529 -2.6340377163 
7.8193701904 8.4606332512 -6.3713893701 -9.038957382 -1.3968497654 -4.2093272799 -1.3070680828 -0.90845409144 9.5112775977 
-0.69939049684 0.098195715644 2.0149469719 1.5924956966 -4.2248915605 2.6269627436 -4.1375154802 0.80661913621 -3.5716078919 
-8.124350663 -3.0642178649 -2.6758630401 2.997567944 0.74829597 7.6833872572 -6.8309987305 3.63343112 3.0882186137 
2.0062140826 6.7049333615 -2.153584483 -0.50325345948 -3.3434516906 0.74487442646 3.6071520221 3.7723292557 6.314262253 
-2.3623109072 -7.2148921374 -6.3831355409 -9.2849897938 -0.9695379803 -0.25553718439 9.9989341706 -2.7812485344 4.6113821275 
-5.9079733291 9.7104462616 -9.6100681558 -2.6429893567 0.18325362871 -1.5866559477 -2.9513231413 -4.9218091642 -9.5992466158 
-4.2632786252 4.0298534777 -1.4818370267 8.3992813757 -3.2168736688 -6.8431730365 2.9468611201 -9.3257028954 -1.7903979677 
4.4012856775 7.3079049051 -8.4403670014 -2.3375493876 2.4543321776 -4.3817741821 0.15893769631 -5.1799161802 -8.2834896217 
-3.6918991616 3.0685404209 -3.7295769779 -1.7668034259 4.5958222215 4.9314641944 3.294146849 -8.0542151574 3.6769912779 
-5.4594376309 7.0758292588 -8.0244698707 -5.3521449677 -1.6968798634 8.2286905201 -1.8782429931 2.3943486567 -1.2793215323 
1.2835892368 -1.7133390992 0.34947475487 -0.8457187706 1.1536525203 -7.3034718929 -1.3713134285 0.40055720038 4.9309266142 
-0.081353380078 -7.4978179303 4.0278882312 2.2159730474 7.5030331761 -3.9211750232 -3.0412873651 2.9973221726 4.5762883418 
-9.3908939932 -4.6581692629 -6.3624809515 7.1047402968 -1.2776148064 5.3789317824 -3.6485593745 -5.6811546167 1.7888133023 
-5.7204930436 8.023037901 -5.0525208126 -0.43319737774 1.3945756728 1.2334285355 -0.61690815352 -3.9106769057 -5.1791000728 
-6.2834386067 5.0010823447 3.6539264705 -9.8556994721 -0.66425241978 5.0598602325 -3.6423430133 -9.3817515488 -0.36802709845 
3.4072854484 8.2480770329 6.412228889 9.7940924665 -7.3039181331 -0.93130661617 0.63098155742 7.2756771972 -0.12244439985 
2.9805342546 -4.4063284053 1.6927077868 -7.1296334073 4.5283134484 1.588974672 9.3551936269 -7.2502888222 0.97008651695 
6.1097737038 -6.121706918 -6.6638844869 1.0313110535 1.4521028917 -9.7428829647 -0.7702780722 -8.8131305503 2.0772701344 
-0.71769075461 -0.58331753864 6.0822132687 -5.5270739874 5.0528816033 0.7167609707 6.0616579977 -5.5102343627 3.2007814231 
-3.1357751645 9.6935315717 -4.8035271563 3.5976905753 7.0659323336 8.3557675287 -7.3303028533 -3.8130763655 -7.093263478 
4.3471019195 -5.4443013897 8.201219765 8.6207113216 0.67068562765 -4.9903238621 -0.69119190534 6.6554757705 -2.3383307338 
-8.2563166724 8.2924158144 -4.2889229614 4.2037847222 -5.5758663337 3.6700919218 -1.2082568223 5.419280995 -1.8431357166 
4.3183566878 -1.9006650881 -1.4369431667 -8.8126404269 -1.3127769213 -8.3741637772 0.60168065712 -4.1371096483 -5.8081265406 
4.0753275014 -9.0548131875 -1.9645269693 -3.7056660607 -6.4676449848 5.4372993851 4.1520947406 0.82150438796 7.4975689263 
-6.6512257571 0.39425564744 6.0307929896 2.9389972075 -3.8563554893 -6.9103073943 -3.5797068971 -2.1371190723 -6.8867161966 
-5.5120672241 6.1866642277 -1.0910763118 7.3449508645 5.4939948268 -9.5198950054 -6.4197932951 -9.8669937735 -6.499404554 
-4.8801389289 -9.962045056 -9.6074213537 -6.4325592004 5.2405356474 -6.640876262 -3.8332932109 5.4337085403 -7.8713031394 
-0.62793487802 4.6573201092 -6.7121572655 8.5451752571 -9.0083995244 7.3513773042 2.6964774721 -0.55598479166 -7.3841247267 
-3.738498155 6.6413256375 7.0126528391 -7.5427668922 6.8338437281 4.6930507437 6.6902991845 -6.5563627012 3.757199669 
3.4691472899 -7.5450996677 4.3063051035 5.2410772442 3.6898390793 -3.2971430226 1.6326670078 -3.8161938453 -3.7356798917 
-8.9600383362 3.9341595291 8.7254133481 -0.74822057011 -5.7510584059 0.54024756094 -0.3441414754 -7.0181980767 6.2686738754 
-4.3811686005 -3.2533355963 1.3624384097 6.275171895 3.3602376448 0.68991715041 9.9621451822 5.2924058749 -6.7227368716 
-5.6620295232 0.28644328709 1.2543290619 -5.5693055664 7.6490517847 -6.6828155065 -5.6773373291 -7.3271852963 -3.2658363394 
-5.230196192 -7.187766815 5.3899895881 -2.4289253361 5.2532971783 0.77422272745 -3.7156755079 -9.1843743343 -4.0476251494 
1.6503465111 1.2889003508 -7.4867624603 0.19598664378 7.6729472615 1.0809583213 6.3161808522 -1.3327119349 -8.6689315028 
1.0624927317 7.2946853082 -4.8775028911 1.0491660564 0.61679923936 9.6261432875 -6.6643219873 4.1931703507 -4.9537506 
6.9928622369 8.3347557472 -3.8622078566 -6.8736585464 -4.6233025963 4.0043851087 6.0604163927 7.0109093481 9.4261707005 
2.6372972182 8.0465124886 7.9388422043 -4.2405499088 -5.0772177982 5.8198821321 8.823496057 9.5280953131 -3.4879086007 
3.1932473109 -8.7515946173 7.4889486366 -9.5465050722 -7.3278030193 -0.58368813967 -2.6554888865 -4.4821630022 8.1112202227 
-4.5935536308 1.6902196963 -3.2946264987 -4.3145510038 2.5991334214 -1.6337760165 0.45884017743 -2.0324299037 2.3189486064 
9.7727226395 -2.2582363495 -5.414782536 0.60991039454 -4.0747559936 -2.3135135175 -4.5867353103 1.5773414664 9.0922665144 
-2.729415664 -0.17498616943 -0.25957809287 -4.0622223253 -7.6175123276 5.1309339229 5.363782245 -1.7573458241 -5.4788665595 
7.2152150153 4.8225722281 4.9397137194 7.312002017 -6.2822893382 3.247150165 3.1399421059 -4.6037661375 -4.1611271608 
-8.3221330163 -4.7746566197 9.1635307102 -6.3603064682 7.9256004932 9.761493733 -0.74381889042 3.606424219 0.83674841015 
3.3369519141 2.9732541803 2.4491950037 5.2308415446 0.19952990031 2.233260026 -0.773396098 0.21787731896 1.2910550677 
-2.5553620753 2.1346202615 2.36513035 -4.8064031125 -9.5064122751 0.93067173771 1.8967326138 3.2781992261 2.6012199846 
-7.7778428976 6.6264915352 -0.41487107523 -4.2233186934 4.023090936 -3.9482570774 8.495410499 0.03225079091 7.4607977991 
-2.7187518253 0.73075133823 9.0594512129 9.1930033786 -3.7569510523 -3.4772282243 5.6274848453 -2.9033873359 -0.98533272036 
-2.7692208476 -0.10523423175 3.3009280553 8.9414661612 6.599965042 3.9087778305 6.6072006305 -8.0909365728 9.2899006806 
-6.1679607791 -6.826695484 -6.1167093486 -1.7082155225 1.3865921636 1.4441417206 -0.32151112407 0.055035725891 5.4991080326 
8.0716965879 -9.6472373467 -4.2844799272 -1.7337652869 4.0508709243 -4.5702207272 7.2515711069 -6.0878255285 -1.6615291824 
5.9329110299 -5.22117531 8.1463184834 -9.550790908 8.8136709994 -7.8839366054 7.4320108207 -0.42124589192 -1.7888869662 
-1.792768228 -1.4602140629 4.9781022491 -9.972976012 -1.7514556539 7.4502698625 2.8049626382 1.0135240141 -6.0482621189 
3.3126341125 -2.4579575801 7.8172682841 -0.77064632458 6.8873284775 4.3671471379 -8.4739139658 -1.5649766592 -6.5470147671 
-7.2577016147 -1.4623082735 0.72110496886 -2.9137312162 -7.2943372175 9.7386158278 1.5001616851 -2.6734857742 4.2215797652 
5.6310998146 -6.4943015301 -8.5594383596 3.7978315768 -0.31089168618 -7.3483655011 0.74154599104 7.91644918 9.1279438846 
3.7686401905 8.6517630847 -1.0251636864 7.9575598274 9.4182113946 -9.25946803 -6.3252735758 -5.485025335 2.1710700228 
6.6846166047 -0.57349255314 -1.2035118436 -1.9054970797 5.001214859 -4.9302051141 -8.8496760058 -8.7081945999 8.7319515009 
4.7483870323 -6.3141550759 9.5453179659 4.9274412944 0.44115910755 6.9953353625 -1.293430934 -0.25619795472 8.4699511348 
7.0262382982 -8.981052553 -9.529802904 0.46632954377 -8.4870267053 7.6759141293 -0.48393816202 0.1413028722 -6.14677998 