# vtk DataFile Version 5.1
vtk output
ASCII
DATASET POLYDATA
POINTS 254 float
-4.76125 -4.63524 -4.06174 -4.54704 -5.3877 11.5784 -3.9992 11.1285 -2.3738 
-4.54438 12.4918 11.3523 10.8479 -4.16975 -4.90167 10.8323 -6.15382 13.9259 
11.2023 13.1397 -5.30085 12.4681 14.3183 12.0981 -6.71945 -6.01129 -0.566193 
-7.62736 -6.92822 2.66007 -7.74635 -6.84413 5.4196 -6.46902 -6.35965 8.85251 
-6.18455 -1.47843 -4.63846 -6.94627 2.69726 -5.78836 -6.7736 6.33689 -5.30745 
-5.59618 9.08513 -4.67465 -5.11913 11.5238 0.74628 -6.1174 12.2235 3.47306 
-6.65329 13.0137 6.60246 -6.02465 12.8386 8.87558 -6.15795 -1.41974 12.0109 
-7.41867 2.63261 13.0731 -7.68279 6.4101 13.0612 -5.7258 9.1116 12.3314 
11.6198 -5.71995 -0.791186 12.4746 -6.77799 2.58944 13.8856 -7.62679 9.4851 
13.8709 -7.34708 14.047 11.8487 -1.08479 -6.16757 11.9125 3.09593 -7.59348 
12.566 8.04934 -7.73868 12.349 10.7585 -7.31645 12.2897 13.9667 -1.22255 
12.4066 15.2643 1.6474 12.4548 16.1809 4.89376 12.6906 15.4855 8.157 
12.3692 0.397537 13.3866 13.8429 4.66753 13.0195 13.5036 8.12516 13.1489 
12.8311 11.3605 13.0027 -1.34556 -5.23268 -5.49312 2.07687 -5.84523 -6.11359 
5.29847 -6.21354 -6.61732 8.07733 -5.7421 -6.05267 -1.70455 -6.60952 12.5393 
2.33315 -7.90253 13.1383 6.21401 -7.3558 13.5986 7.82656 -3.77865 13.571 
-0.844211 12.2113 -4.84736 2.54567 13.2688 -6.37417 5.54548 14.0942 -7.64939 
8.31864 13.9481 -6.89772 -0.941865 13.7476 13.1834 2.38494 15.1205 14.5633 
5.61481 15.2988 14.8554 9.40811 15.6209 13.8302 -9.47978 5.43669 -0.748907 
-10.2196 6.25439 10.6746 -8.64445 11.1511 8.06085 -7.85479 9.40837 3.08339 
-11.4756 5.97001 5.52763 -11.0381 -0.201078 1.25322 -10.8931 0.331216 7.7526 
-9.14228 4.08844 11.1883 -8.44626 8.21187 11.3388 -10.1235 8.58043 8.7742 
-7.24539 10.5741 10.0115 -8.92784 3.27727 -2.42836 -9.24248 7.69122 1.31078 
-7.52188 7.71121 -2.11927 -6.55747 9.78529 -0.624968 -8.74331 10.2449 5.80582 
-10.3548 7.68709 4.56096 -11.0556 5.34717 2.40481 -10.4033 8.49966 7.04978 
-11.2408 6.29365 7.68824 -10.4482 2.56693 0.258418 -9.60642 -0.158532 -1.57326 
-7.87428 -3.46001 -1.85518 -9.5549 -3.61136 0.416414 -10.1761 -3.85105 2.96614 
-10.8404 3.2359 9.39783 -8.9292 0.425404 10.4028 -10.0145 -2.84887 5.5941 
-8.99319 -3.1873 8.05713 -7.02039 -2.94656 10.4285 -11.6564 0.362566 4.6885 
-11.8078 3.48737 6.37765 -11.8764 2.95177 3.43975 14.8747 7.23399 -4.07781 
15.6344 7.54777 9.34668 14.2644 13.6271 6.16659 13.6816 12.5666 0.123819 
16.7946 7.01958 3.64381 15.62 0.257785 0.631973 16.4817 -2.12443 7.57948 
14.5801 4.9664 11.3539 14.1306 10.0811 10.5338 15.1787 10.699 7.15239 
14.264 12.8546 9.54628 13.7637 4.56865 -5.48301 15.1799 10.042 -1.69356 
14.0833 9.82675 -5.02189 13.4975 11.724 -3.44257 13.9506 13.8573 3.62431 
15.6904 10.5879 1.23261 16.1668 6.93222 -0.0923691 15.808 10.8001 4.31171 
15.979 7.27317 6.30655 15.5919 3.76911 -2.37023 13.9575 0.764538 -3.83332 
12.9395 -2.81401 -3.20808 13.9507 -2.84252 0.0536758 14.6019 -4.43819 3.78426 
16.2284 3.416 8.20116 14.6608 2.08761 12.873 15.5317 -4.76622 7.98211 
25.3253 3.63406 15.5582 13.9203 -1.96807 13.2958 16.1697 -0.313468 4.31573 
17.0319 2.72479 5.54943 16.5817 3.64228 1.79309 1.60483 -8.8561 -1.93365 
1.52485 -8.85629 10.3086 -4.65224 -8.27064 6.59957 -5.09086 -8.31035 1.26811 
1.23705 -10.1464 3.80292 7.26911 -8.96834 0.660401 7.43041 -8.77853 6.75941 
4.42433 -8.71206 11.2209 -0.77045 -7.99392 11.1109 -1.46575 -8.6868 8.11174 
-3.62824 -7.22531 9.77282 4.40392 -8.19849 -3.7534 -1.69182 -9.09703 -0.358175 
-0.592542 -7.47583 -3.14081 -3.79344 -6.80824 -2.19492 -5.21747 -8.81482 4.27555 
-2.33153 -9.94066 2.24908 1.30182 -10.2762 0.816119 -2.2108 -9.63039 5.30551 
1.18453 -9.60114 6.56506 4.54773 -9.88909 -1.19992 7.08774 -8.574 -3.07774 
8.98695 -6.74431 -3.32998 9.64464 -7.95606 -0.157067 10.4796 -7.94627 3.33905 
3.75281 -9.18143 8.31321 6.46086 -8.33636 9.36133 9.71137 -8.25769 6.44366 
11.5563 -7.86627 11.5565 -26.5131 -12.7704 13.5867 6.78579 -8.40397 3.64591 
4.33978 -9.64771 5.37311 4.24351 -9.84653 2.09018 3.14892 14.3505 -2.32512 
2.72322 16.3181 10.4894 -3.63884 14.6595 7.68622 -3.06065 13.9712 1.68058 
2.68461 17.1009 3.3937 7.24171 16.6143 0.015383 8.01506 18.2509 7.12958 
5.22706 16.3889 11.9387 -0.0616928 15.3445 11.711 -0.425763 15.9103 8.72795 
-3.14459 14.3453 10.0949 4.68791 15.0671 -4.30714 0.325616 14.4078 0.112084 
0.80597 13.4343 -2.96993 -2.12228 12.5112 -1.10265 -3.62648 14.9637 4.58821 
-0.114412 15.8986 2.72495 2.69982 15.9747 0.465125 -0.635146 16.6874 5.659 
2.58416 17.3662 7.06099 5.0312 16.1085 -1.6206 7.00946 15.8273 -3.7443 
9.63856 14.8754 -3.50721 9.46962 16.2835 -0.823602 10.1133 17.547 2.31696 
5.71576 17.4675 8.88451 8.17302 17.2625 10.9502 10.1448 17.6034 5.11536 
10.4441 17.8392 7.66321 10.6392 16.8287 10.9623 7.62042 17.8469 3.65658 
5.44917 18.3521 5.34535 4.92641 16.9991 1.81493 -2.78688 2.98728 -9.0424 
8.92682 3.07887 -9.53548 6.04773 -3.47493 -8.68516 0.543436 -2.83767 -8.15638 
2.88463 2.65478 -11.3035 0.814175 8.58609 -9.1604 7.08266 9.06563 -10.283 
10.4363 6.44455 -8.9567 9.94855 0.391588 -7.72908 7.01762 -0.211615 -9.32928 
9.10098 -2.82636 -7.23581 -4.1237 5.59548 -7.77559 -0.889934 0.0619209 -9.47108 
-3.92277 0.281718 -7.32887 -2.71027 -2.6555 -6.72262 3.38502 -3.26347 -8.56501 
1.68396 -0.132366 -10.2953 0.268638 2.61845 -10.668 4.45996 -0.42573 -10.5998 
5.6332 2.77507 -11.2544 -1.23905 5.86814 -9.4306 -2.47588 7.91677 -7.96809 
-2.67293 10.4061 -6.16948 0.482934 11.3522 -7.90296 2.89909 11.4997 -8.28421 
8.00194 6.83278 -10.6895 10.2285 9.63328 -9.40658 5.73855 10.9702 -9.03658 
8.25983 11.365 -8.95328 10.2823 11.5813 -7.99811 3.60553 8.49059 -10.1295 
4.77694 5.98123 -11.4127 1.65217 6.02027 -11.0339 -2.87319 3.38062 15.3724 
9.3933 3.81831 14.432 5.81994 -2.56947 14.5352 0.375104 -4.31389 14.1682 
3.2215 3.07534 16.376 0.314865 9.87868 15.9083 7.73982 10.3148 15.7581 
12.0698 6.96599 14.0409 10.7436 1.44855 14.0926 7.43552 0.614253 14.6724 
9.30331 -1.39352 13.4111 -5.05306 5.70293 14.5959 -1.42482 -0.414555 14.7539 
-4.38734 0.445978 13.9648 -3.34718 -3.47466 13.2796 3.74761 -4.37221 14.6611 
1.45363 -0.544095 15.3749 0.320856 3.49084 16.4396 4.36621 -0.0808442 15.679 
6.33711 3.41428 15.9122 -1.25608 6.86741 15.7154 -3.32818 8.74339 14.585 
-3.04679 10.9354 13.3667 -0.28188 12.2806 15.1886 2.79765 12.9858 15.9466 
8.50434 7.14222 15.3639 10.9607 10.4701 14.6709 5.8448 12.7224 16.2001 
8.71945 12.9401 15.0885 10.9753 12.9278 13.9592 3.70673 10.0166 16.2327 
5.10951 6.77169 15.9784 2.1769 6.8463 16.528 
POLYGONS 505 1512
OFFSETS vtktypeint64
0 3 6 9 12 15 18 21 24 
27 30 33 36 39 42 45 48 51 
54 57 60 63 66 69 72 75 78 
81 84 87 90 93 96 99 102 105 
108 111 114 117 120 123 126 129 132 
135 138 141 144 147 150 153 156 159 
162 165 168 171 174 177 180 183 186 
189 192 195 198 201 204 207 210 213 
216 219 222 225 228 231 234 237 240 
243 246 249 252 255 258 261 264 267 
270 273 276 279 282 285 288 291 294 
297 300 303 306 309 312 315 318 321 
324 327 330 333 336 339 342 345 348 
351 354 357 360 363 366 369 372 375 
378 381 384 387 390 393 396 399 402 
405 408 411 414 417 420 423 426 429 
432 435 438 441 444 447 450 453 456 
459 462 465 468 471 474 477 480 483 
486 489 492 495 498 501 504 507 510 
513 516 519 522 525 528 531 534 537 
540 543 546 549 552 555 558 561 564 
567 570 573 576 579 582 585 588 591 
594 597 600 603 606 609 612 615 618 
621 624 627 630 633 636 639 642 645 
648 651 654 657 660 663 666 669 672 
675 678 681 684 687 690 693 696 699 
702 705 708 711 714 717 720 723 726 
729 732 735 738 741 744 747 750 753 
756 759 762 765 768 771 774 777 780 
783 786 789 792 795 798 801 804 807 
810 813 816 819 822 825 828 831 834 
837 840 843 846 849 852 855 858 861 
864 867 870 873 876 879 882 885 888 
891 894 897 900 903 906 909 912 915 
918 921 924 927 930 933 936 939 942 
945 948 951 954 957 960 963 966 969 
972 975 978 981 984 987 990 993 996 
999 1002 1005 1008 1011 1014 1017 1020 1023 
1026 1029 1032 1035 1038 1041 1044 1047 1050 
1053 1056 1059 1062 1065 1068 1071 1074 1077 
1080 1083 1086 1089 1092 1095 1098 1101 1104 
1107 1110 1113 1116 1119 1122 1125 1128 1131 
1134 1137 1140 1143 1146 1149 1152 1155 1158 
1161 1164 1167 1170 1173 1176 1179 1182 1185 
1188 1191 1194 1197 1200 1203 1206 1209 1212 
1215 1218 1221 1224 1227 1230 1233 1236 1239 
1242 1245 1248 1251 1254 1257 1260 1263 1266 
1269 1272 1275 1278 1281 1284 1287 1290 1293 
1296 1299 1302 1305 1308 1311 1314 1317 1320 
1323 1326 1329 1332 1335 1338 1341 1344 1347 
1350 1353 1356 1359 1362 1365 1368 1371 1374 
1377 1380 1383 1386 1389 1392 1395 1398 1401 
1404 1407 1410 1413 1416 1419 1422 1425 1428 
1431 1434 1437 1440 1443 1446 1449 1452 1455 
1458 1461 1464 1467 1470 1473 1476 1479 1482 
1485 1488 1491 1494 1497 1500 1503 1506 1509 
1512 
CONNECTIVITY vtktypeint64
20 21 82 22 63 21 65 57 64 
58 65 66 64 66 65 23 3 66 
19 18 58 3 19 66 66 19 58 
22 23 64 64 23 66 63 22 57 
57 22 64 67 13 77 14 13 67 
69 56 68 70 68 59 69 70 15 
68 70 69 16 2 70 70 59 16 
17 16 59 2 15 70 15 14 69 
56 14 67 69 14 56 71 17 59 
58 18 71 71 18 17 72 59 68 
73 68 56 60 72 73 68 73 72 
65 58 74 75 74 60 57 65 75 
74 75 65 72 60 74 71 74 58 
59 72 71 74 71 72 76 56 67 
61 76 77 67 77 76 13 12 77 
12 0 78 80 61 79 79 9 80 
8 78 0 9 79 8 78 8 79 
77 79 61 78 77 12 79 77 78 
63 57 81 82 81 62 63 82 21 
81 82 63 84 62 83 10 84 83 
80 10 83 84 10 11 1 20 85 
85 20 82 11 85 84 85 11 1 
62 84 82 85 82 84 10 80 9 
86 83 62 61 80 86 83 86 80 
87 62 81 75 81 57 60 87 75 
81 75 87 76 61 88 73 88 60 
56 76 73 88 73 76 87 60 88 
86 88 61 62 87 86 88 86 87 
36 115 37 38 37 96 98 97 90 
91 99 98 97 98 99 39 99 7 
35 91 34 7 99 35 99 91 35 
38 97 39 97 99 39 96 90 38 
90 97 38 100 110 29 30 100 29 
102 101 89 103 92 101 102 31 103 
101 102 103 32 103 6 103 32 92 
33 92 32 6 103 31 31 102 30 
89 100 30 102 89 30 104 92 33 
91 104 34 104 33 34 105 101 92 
106 89 101 93 106 105 101 105 106 
98 107 91 108 93 107 90 108 98 
107 98 108 105 107 93 104 91 107 
92 104 105 107 105 104 109 100 89 
94 110 109 100 109 110 29 110 28 
28 111 4 113 112 94 112 113 25 
24 4 111 25 24 112 111 112 24 
110 94 112 111 28 110 112 111 110 
96 114 90 115 95 114 96 37 115 
114 96 115 117 116 95 26 116 117 
113 116 26 117 27 26 5 118 36 
118 115 36 27 117 118 118 5 27 
95 115 117 118 117 115 26 25 113 
119 95 116 94 119 113 116 113 119 
120 114 95 108 90 114 93 108 120 
114 120 108 109 121 94 106 93 121 
89 106 109 121 109 106 120 121 93 
119 94 121 95 119 120 121 120 119 
47 46 148 45 129 46 131 123 130 
124 131 132 130 132 131 44 1 132 
11 10 124 1 11 132 132 11 124 
45 44 130 130 44 132 129 45 123 
123 45 130 133 42 143 41 42 133 
135 122 134 136 134 125 135 136 40 
134 136 135 8 0 136 136 125 8 
9 8 125 0 40 136 40 41 135 
122 41 133 135 41 122 137 9 125 
124 10 137 137 10 9 138 125 134 
139 134 122 126 138 139 134 139 138 
131 124 140 141 140 126 123 131 141 
140 141 131 138 126 140 137 140 124 
125 138 137 140 137 138 142 122 133 
127 142 143 133 143 142 42 43 143 
43 4 144 146 127 145 145 25 146 
24 144 4 25 145 24 144 24 145 
143 145 127 144 143 43 145 143 144 
129 123 147 148 147 128 129 148 46 
147 148 129 150 128 149 26 150 149 
146 26 149 150 26 27 5 47 151 
151 47 148 151 27 5 27 151 150 
128 150 148 151 148 150 26 146 25 
152 149 128 127 146 152 149 152 146 
153 128 147 141 147 123 126 153 141 
147 141 153 142 127 154 139 154 126 
122 142 139 154 139 142 153 126 154 
152 154 127 128 153 152 154 152 153 
55 181 54 53 54 162 164 163 156 
157 165 164 163 164 165 52 165 3 
19 157 18 3 165 19 165 157 19 
53 163 52 163 165 52 162 156 53 
156 163 53 166 176 50 49 166 50 
168 167 155 169 158 167 168 48 169 
167 168 169 16 169 2 169 16 158 
17 158 16 2 169 48 48 168 49 
155 166 49 168 155 49 170 158 17 
157 170 18 170 17 18 171 167 158 
172 155 167 159 172 171 167 171 172 
164 173 157 174 159 173 156 174 164 
173 164 174 171 173 159 170 157 173 
158 170 171 173 171 170 175 166 155 
160 176 175 166 175 176 50 176 51 
51 177 6 179 178 160 178 179 33 
32 6 177 33 32 178 177 178 32 
176 160 178 177 51 176 178 177 176 
162 180 156 181 161 180 162 54 181 
180 162 181 183 182 161 34 182 183 
179 182 34 183 35 34 7 184 55 
184 181 55 184 7 35 35 183 184 
161 181 183 184 183 181 34 33 179 
185 161 182 160 185 179 182 179 185 
186 180 161 174 156 180 159 174 186 
180 186 174 175 187 160 172 159 187 
155 172 175 187 175 172 186 187 159 
185 160 187 161 185 186 187 186 185 
31 30 214 29 195 30 197 189 196 
190 197 198 196 198 197 28 4 198 
43 42 190 4 43 198 198 43 190 
29 28 196 196 28 198 195 29 189 
189 29 196 199 14 209 13 14 199 
201 188 200 202 200 191 201 202 12 
200 202 201 40 0 202 202 191 40 
41 40 191 0 12 202 12 13 201 
188 13 199 201 13 188 203 41 191 
190 42 203 203 42 41 204 191 200 
205 200 188 192 204 205 200 205 204 
197 190 206 207 206 192 189 197 207 
206 207 197 204 192 206 203 206 190 
191 204 203 206 203 204 208 188 199 
193 208 209 199 209 208 14 15 209 
15 2 210 212 193 211 211 49 212 
48 210 2 49 211 48 210 48 211 
209 211 193 210 209 15 211 209 210 
195 189 213 214 213 194 195 214 30 
213 214 195 216 194 215 50 216 215 
212 50 215 216 50 51 6 31 217 
217 31 214 217 51 6 51 217 216 
194 216 214 217 214 216 50 212 49 
218 215 194 193 212 218 215 218 212 
219 194 213 207 213 189 192 219 207 
213 207 219 208 193 220 205 220 192 
188 208 205 220 205 208 219 192 220 
218 220 193 194 219 218 220 218 219 
39 247 38 37 38 228 230 229 222 
223 231 230 229 230 231 36 231 5 
47 223 46 5 231 47 231 223 47 
37 229 36 229 231 36 228 222 37 
222 229 37 232 242 22 21 232 22 
234 233 221 235 224 233 234 20 235 
233 234 235 44 235 1 235 44 224 
45 224 44 1 235 20 20 234 21 
221 232 21 234 221 21 236 224 45 
223 236 46 236 45 46 237 233 224 
238 221 233 225 238 237 233 237 238 
230 239 223 240 225 239 222 240 230 
239 230 240 237 239 225 236 223 239 
224 236 237 239 237 236 241 232 221 
226 242 241 232 241 242 22 242 23 
23 243 3 245 244 226 244 245 53 
52 3 243 53 52 244 243 244 52 
242 226 244 243 23 242 244 243 242 
228 246 222 247 227 246 228 38 247 
246 228 247 249 248 227 54 248 249 
245 248 54 249 55 54 7 250 39 
250 247 39 250 7 55 55 249 250 
227 247 249 250 249 247 54 53 245 
251 227 248 226 251 245 248 245 251 
252 246 227 240 222 246 225 240 252 
246 252 240 241 253 226 238 225 253 
221 238 241 253 241 238 252 253 225 
251 226 253 227 251 252 253 252 251 

CELL_DATA 504
SCALARS scalars double
LOOKUP_TABLE default
-3.7487693234 -0.50816502012 4.6299695676 5.1859420481 5.9860527785 4.1055876842 7.8756244358 5.9003931137 5.9245413031 
5.1662392424 5.9955652222 -1.6206318031 3.6260915712 0.41704339344 1.0878082363 4.4842371522 7.1696432766 5.6394830286 
5.9327356144 7.389455934 7.042002165 5.1970904838 7.6345341124 4.3680822565 1.5412896298 4.5761093895 5.2011074638 
6.2721777954 6.2838663814 7.3930401432 4.4205324974 4.5052453588 5.0247189977 5.1891091433 3.6619032438 2.9290974467 
3.8463638419 4.6961237901 5.940866822 6.2057258581 5.9195629425 1.3424113874 0.27878699635 0.53084244364 -3.0566000459 
-4.0398517851 -3.3310586816 -6.045893852 -5.5961587032 -6.4133381179 -5.5596151677 -2.6567258191 -3.1105643034 -3.4163155929 
-1.65282846 -3.1080026948 -1.7222604095 -1.9346821688 -4.3443098053 -4.8341089974 -4.8738871123 -5.2353076893 -3.3808462531 
-3.5388743503 -3.9321545761 -3.9552550856 -3.5363581773 -3.8572389848 -6.3700754671 -3.9475453772 -2.8311133718 -3.9849672978 
-1.4743744241 0.57309575825 1.6002873333 0.47967011514 0.45131598905 2.4939688688 1.4515171093 1.2705592209 1.323253126 
-1.5539819825 -1.7408869593 -0.67541565933 0.11287614499 0.73484181418 3.5958235881 3.1963480781 0.63260541618 2.453703243 
5.9979960276 5.8284686842 5.5783048473 2.050616749 1.0602986443 0.21359113474 3.0298926051 -2.0280427162 -1.21539927 
1.6884611846 5.9503838744 5.3550678162 5.0043215435 6.7246809267 5.9973461774 5.329282025 6.3454633067 1.5209408778 
-0.63247373496 0.70007877258 5.2769610418 5.6025152059 6.0037508772 6.1938744646 1.4774597566 1.8669810228 1.9895213021 
3.5613105556 1.982464856 2.049337174 1.7039261357 2.6117316801 5.0841949071 6.0238026339 5.0687775493 -0.80275242409 
-3.029071482 -1.8909217801 -2.0401822453 -4.5031849522 -4.0171101375 -5.2131788424 -6.188973202 -5.2160908046 -5.6446092062 
-3.8938232748 -3.1665391724 -3.0796524716 -0.012256464914 0.074140412197 2.5073910945 2.1830942546 -3.5376180739 -5.9097946338 
-5.7077638692 -7.2414188467 0.4999289014 0.71944604535 1.3600513363 1.3818049945 7.8856306876 1.4718022539 -5.8729384707 
-3.625411982 -3.2753582536 -3.2000558775 0.11565011486 1.1385279422 1.7353531293 1.8043055269 -1.9120633146 0.290224552 
0.46666384118 -0.10014858551 0.023294347669 -2.1259811273 -1.9214643881 -2.0627732083 -4.0559786964 -8.8860106588 -9.2805977864 
-8.7460613893 -8.8138344956 -7.2532616307 -8.1847053719 -7.3618318517 -8.3353171298 -7.7647537742 -7.7265331399 -9.4086422519 
-9.060187891 -8.2545425208 -7.8041498516 -8.08440373 -7.6964154155 -7.3380847143 -7.5535303637 -6.8356759246 -7.29369988 
-7.152364698 -6.943935481 -7.3957672301 -7.8469215595 -7.8983856634 -8.2669628363 -8.1280659785 -7.8822564023 -8.5211149752 
-8.6985680897 -9.9627014132 -9.1050827963 -8.8033750696 -9.793525277 -9.5560112984 -9.3095929396 -9.8922897944 -8.9293061205 
-8.7372818486 -9.4950725451 -8.2761809219 -9.1434805331 -8.3301327692 -7.4140544382 -6.8693467835 -9.2683319486 -8.7515852419 
-6.8245173576 -6.7151119973 -6.6963216078 -9.2751231377 -6.7370807625 -6.8854087087 -9.8717941751 -9.4962764219 -8.9797023374 
-9.6014226891 -9.7505492615 -9.9129943418 -9.8108442451 -9.8594205529 1.1188233385 6.9606654986 0.53959002017 -9.877650446 
-9.8472474914 -9.8952838123 -8.7647046276 -9.6723808938 -9.6902662461 -9.9064244932 -9.640262521 -9.8086048204 -9.79142725 
-9.849830969 -9.5442966077 -9.9110885771 -8.6429325632 -9.9069000361 -9.8983204545 -9.0011091248 -9.2242668266 -8.7920402118 
8.7733963168 9.2972010948 9.4806787487 8.8927733152 8.892067309 7.1200161832 8.2482270115 7.1151931133 8.2506573915 
7.200890076 7.2130131947 9.4776489652 9.4154729305 9.1932938669 8.5583617132 9.0698701705 7.791088021 8.8501069037 
8.1830443699 8.533718328 6.5593614522 6.7454343417 8.5131940966 8.9048799853 8.1950274567 9.2964120323 7.0354597251 
8.619097936 7.0567319365 7.9192227538 7.5260475998 8.8983350007 7.5440596693 8.7230225348 9.8182267758 9.1447633562 
9.1839934769 9.0079522191 8.5067501338 8.3304356153 8.6859569527 7.5253477233 9.7690712186 9.1847207015 8.7594557619 
8.0557049804 9.2790835548 7.0473459064 7.9123095673 7.4525818385 7.4612519179 9.7579015367 8.6222312712 8.407349237 
9.3365427727 9.5817593183 9.1929413485 9.3668317815 9.7530603354 8.4916085481 8.5224637185 6.9777285823 6.4472912006 
8.8536457277 6.3899079081 6.987791061 9.6340001069 9.4572862798 7.2284884207 9.7625507477 9.4749065505 9.9391054399 
9.5869495949 9.3441209291 9.2764846799 9.5160943514 9.6715315186 9.1288706095 7.1918397365 9.2829851446 9.2607138773 
9.464384065 9.8328774732 9.3505894061 1.6783128416 -0.96660147044 -3.4189308278 -3.0162594427 -2.5894281206 -4.6346645446 
-6.2613889234 -4.7258949339 -4.6759383279 -2.9275642372 -2.5626209756 -1.0010395807 -3.3455777952 3.5306993977 1.2935768908 
-2.5524153125 -5.2849145861 -3.8446756649 -3.8089304814 -5.5884087836 -5.5060996367 -6.2734123159 -3.8841803037 -3.1155446585 
0.64114201626 -2.4254040707 -6.1865301057 -5.8596645462 -6.2373985227 -5.1214826117 -1.8477586565 -2.4391683543 -2.8330409084 
-2.9879495252 -2.0964663406 -3.1958459746 -3.3234766605 -2.8541135669 -5.6015838598 -5.5469399386 -5.3870287456 1.5544448512 
3.728252158 2.8493963528 4.1140311153 7.8401388916 3.914288331 7.1101044084 7.8025050753 7.9921169775 7.7902163018 
3.4441682262 4.5571910299 4.6906646752 -1.1241009306 2.599834882 -0.82822673386 -0.7828809033 5.2022643754 4.0390843364 
3.9152501428 6.0138669891 6.9230637194 5.1614091777 6.6859057536 5.9149941654 4.2641658242 5.5203612133 6.140904926 
4.8394351289 4.5376025336 4.9469461873 2.3739141747 -1.5218333581 -0.44043905294 0.09593057622 4.2264459078 -0.085775348083 
1.2515860265 1.0456426128 0.35573816991 5.1011751627 4.1216248758 4.1372542044 1.6231939744 0.18723169437 -0.3725306953 
-2.2524162455 -3.4179158654 0.92710856021 -1.5170036419 0.93591639311 -1.5502145847 -0.48478896562 -3.2102858751 -1.6192078241 
0.32413390192 2.5085254744 -0.32972262189 -2.7023420648 -2.6788541232 -2.8447908126 -2.4389898589 -4.2087208738 -3.6243556814 
-3.9352660653 -3.1478742272 -3.6091446821 -1.0876730634 -2.1163831928 -3.4369124089 -1.7136417808 -3.7618505764 -2.4138512419 
-2.6313210273 -2.5928677746 -3.0493419851 -2.1594004605 -1.5639867453 -2.0885948129 -2.5930742878 -2.3711666485 -2.5972808371 
-2.6409354789 -2.2121692193 0.42716991998 1.3729196414 1.9113032349 5.5403046899 4.0464266079 2.1137827834 4.7369991433 
4.3978113152 6.0892803575 5.1122078649 1.7614552212 4.5321890802 4.3645445393 -1.7007535338 -0.40129869764 0.11606778624 
-0.5934774345 1.0601623414 4.6310499117 4.6003741608 3.6974466167 2.9757573313 2.2175764336 3.6780092213 2.9090199096 
1.2385507324 2.4813822076 5.2637093605 -0.85010736728 0.65790727461 0.72408552591 -0.76950955504 -1.2902553217 0.33014117461 
0.43960036119 0.57548849967 -0.35618275856 0.54426228719 1.0091404875 0.11490547112 1.3995701284 -0.26440156427 0.026280416986 

